/*--------------------------------*- C++ -*----------------------------------*\
| =========                 |                                                 |
| \\      /  F ield         | OpenFOAM: The Open Source CFD Toolbox           |
|  \\    /   O peration     | Version:  2206                                  |
|   \\  /    A nd           | Website:  www.openfoam.com                      |
|    \\/     M anipulation  |                                                 |
\*---------------------------------------------------------------------------*/
FoamFile
{
    version     2.0;
    format      ascii;
    arch        "LSB;label=32;scalar=64";
    class       volScalarField;
    location    "0/fluid_0";
    object      k;
}
// * * * * * * * * * * * * * * * * * * * * * * * * * * * * * * * * * * * * * //

dimensions      [0 2 -2 0 0 0 0];

internalField   nonuniform List<scalar> 
55970
(
0.004024364
0.00402287
0.00403402
0.003970875
0.003973224
0.003897484
0.003789256
0.00365969
0.003975435
0.00389495
0.003988164
0.003909706
0.003787483
0.003655506
0.003806418
0.003677376
0.006091675
0.0171451
0.007971141
0.06224349
0.0253369
0.06027959
0.02640767
0.002030377
0.0008290374
0.003242477
0.001430934
0.006196932
0.001642699
0.008066546
0.002727638
0.01940114
0.003330053
0.0035097
0.003350672
0.01010502
0.003162708
0.002997999
0.02175328
0.003180929
0.003015592
0.003504924
0.003343569
0.003526662
0.003366062
0.003172466
0.003002355
0.003192824
0.003020257
0.004041074
0.004031274
0.00404288
0.004044402
0.004045678
0.004027137
0.004039594
0.004035438
0.00404172
0.004037362
0.004046542
0.004050328
0.004051845
0.00405556
0.004045129
0.004040474
0.004049795
0.004045999
0.004040505
0.004023774
0.004055282
0.004057813
0.003996371
0.003955644
0.004055529
0.004045701
0.004047311
0.004054622
0.004063696
0.004051056
0.004062656
0.004069195
0.004069309
0.004072485
0.004078165
0.004059361
0.004040659
0.004067362
0.004087041
0.00403177
0.004028703
0.00403372
0.004030836
0.004026196
0.004023918
0.004028561
0.004026467
0.004037046
0.004034224
0.004042557
0.004039944
0.004032341
0.004030433
0.004037988
0.004036525
0.004043352
0.004054313
0.004046819
0.00405891
0.004043401
0.004055475
0.004063075
0.004068939
0.004070104
0.00407827
0.004067509
0.004077358
0.004040602
0.004052632
0.004038351
0.004050705
0.004065069
0.004076153
0.004063984
0.004076462
0.004059943
0.004085888
0.004055175
0.00408354
0.003823054
0.003988264
0.003903233
0.003837448
0.004030152
0.00400762
0.003743572
0.003656085
0.00395811
0.003921787
0.003762287
0.003677783
0.003979927
0.003947553
0.004053517
0.004045488
0.004068109
0.004067958
0.004065992
0.004058893
0.00408187
0.00408327
0.004036066
0.004026714
0.004069135
0.004073609
0.004051054
0.004042434
0.004086256
0.004091619
0.003981883
0.003886583
0.004093011
0.004089935
0.003563486
0.003471563
0.003883501
0.003846108
0.003588612
0.003497052
0.003912159
0.003876993
0.003383018
0.003302221
0.003812968
0.003787033
0.003406303
0.003319476
0.003843279
0.003815246
0.00401886
0.004015309
0.00408367
0.004102057
0.004035606
0.004031394
0.004102085
0.004119484
0.004019569
0.004037111
0.004134774
0.004186636
0.004034069
0.004046506
0.00414742
0.004191275
0.003763446
0.003628677
0.004088664
0.004101619
0.004072855
0.004077529
0.004074182
0.004082171
0.004085386
0.004091786
0.004087012
0.004097168
0.004085256
0.004098729
0.004094478
0.004113961
0.004101411
0.004115264
0.004111638
0.004131917
0.004075305
0.004086059
0.00409059
0.004087863
0.00410087
0.004090274
0.004106015
0.004101831
0.004124734
0.004108192
0.004129702
0.00411938
0.004144314
0.004127156
0.004152568
0.004106923
0.004130391
0.004112281
0.004151398
0.004120512
0.004155019
0.004144014
0.004186173
0.004136983
0.004168404
0.004161401
0.004202653
0.004207068
0.004286646
0.004241677
0.004327563
0.004213548
0.004278915
0.004256515
0.004330722
0.004153347
0.004189793
0.004155563
0.004188103
0.004176085
0.004215903
0.004182272
0.004219231
0.004236736
0.004348962
0.00422716
0.004436917
0.004265763
0.004340549
0.004262233
0.004380548
0.004173462
0.00423387
0.004213958
0.00434366
0.01223219
0.0591528
0.02812284
0.005165408
0.002207315
0.006977113
0.002912772
0.01059332
0.004132656
0.000300237
0.0001514203
0.0004943569
0.0002752021
0.0005103661
0.0001909884
0.0008248803
0.0003313876
0.0001113128
9.321263e-05
0.000220104
0.0001914236
0.0001231277
9.965619e-05
0.0002374363
0.0002013065
0.0007124757
0.0004340946
0.0009298384
0.0006322603
0.001145519
0.0005011466
0.0003743098
0.0003323695
0.0005783563
0.0005292093
0.0003955105
0.0003466305
0.0008455208
0.00040025
0.001132538
0.0005466416
0.0002369482
0.0001535037
0.0003234758
0.0002086056
0.02488267
0.002055889
0.002008488
0.002556011
0.002514196
0.01590874
0.02835121
0.0198235
0.01023255
0.004157938
0.01547287
0.005579802
0.001143561
0.0007836537
0.001245282
0.0006719972
0.002327527
0.002325198
0.002233126
0.002163209
0.002119791
0.002276267
0.002168692
0.00224371
0.002122536
0.002078738
0.002006562
0.00201541
0.001922133
0.00195749
0.001842894
0.001779704
0.003234025
0.0031876
0.003774906
0.003783623
0.003242866
0.003181666
0.003796233
0.003793092
0.003175943
0.003205611
0.003834612
0.003908087
0.003147193
0.003143489
0.003814378
0.003876552
0.004075252
0.001111935
0.00426806
0.001131186
0.004073571
0.00412179
0.004255199
0.004359911
0.002362526
0.04473736
0.001019921
0.01170089
0.004216344
0.004310977
0.004507731
0.004455043
0.003509111
0.003433556
0.004143581
0.004299717
0.003255489
0.003112673
0.003794503
0.005011104
0.003176533
0.003202725
0.003918433
0.00405264
0.005351442
0.01518982
0.01490319
0.0379904
0.004275987
0.006878953
0.006349619
0.0171283
0.03388252
0.04883751
0.05588355
0.05826681
0.01613773
0.03105873
0.03444819
0.0484012
0.003404545
0.004079931
0.01086542
0.004418648
0.003305678
0.004511968
0.0044193
0.004379661
0.004559114
0.004466607
0.004633513
0.001067896
0.004803488
0.00702048
0.03103959
0.004492124
0.005438511
0.004347246
0.01031761
0.004506415
0.004452094
0.004192695
0.008551811
0.004542992
0.004363974
0.004496153
0.004272691
0.01851915
0.05492622
0.04084196
0.07249529
0.005797621
0.02072462
0.01174613
0.03435696
0.004507786
0.003930327
0.004437886
0.004952159
0.0375941
0.0612399
0.06194729
0.06983737
0.01432249
0.0342584
0.02924081
0.05034872
0.06426523
0.05353978
0.05830335
0.04328727
0.05057912
0.05589996
0.05863993
0.05543696
0.0741338
0.06543578
0.07234175
0.05474321
0.04394275
0.05854192
0.05397369
0.05950178
0.04817914
0.03520296
0.03906503
0.03050078
0.05854971
0.0510626
0.05435234
0.04622134
0.009179116
0.0239994
0.01732235
0.02881715
0.05176479
0.04998164
0.04024336
0.0422658
0.04639756
0.05214387
0.04842342
0.0233678
0.04124987
0.03256143
0.03305786
0.02782423
0.05181366
0.04429379
0.04742327
0.03951788
0.02864355
0.02633442
0.02725398
0.02647543
0.04291544
0.03642896
0.03944033
0.0345407
0.03272774
0.03182743
0.004044149
0.004050084
0.004032197
0.004000253
0.003920079
0.004002906
0.003914736
0.003815237
0.003675828
0.003788737
0.003627138
0.003954448
0.003806921
0.003619912
0.003396196
0.003516222
0.003345823
0.003450175
0.003248012
0.003162501
0.002977547
0.003043
0.002834763
0.003153899
0.002898915
0.002648442
0.002406945
0.002790533
0.002608458
0.002632938
0.002436878
0.002436906
0.002275415
0.002254842
0.002083351
0.00218322
0.001978113
0.001793263
0.001627634
0.004061279
0.004064139
0.004064857
0.004066309
0.004057807
0.004053906
0.004061072
0.004056461
0.004055599
0.004053356
0.004053241
0.004048787
0.004069644
0.004031158
0.004074036
0.004072788
0.004012978
0.003937246
0.004025426
0.003963001
0.003825034
0.003676056
0.003865169
0.003745667
0.004028048
0.003963653
0.004022218
0.003968439
0.003878179
0.00376486
0.003885411
0.003783912
0.004050337
0.00404768
0.004052299
0.004048253
0.004045466
0.004044512
0.004045573
0.004045078
0.004041572
0.004031784
0.00402477
0.004027978
0.004065009
0.004068304
0.004058863
0.004062528
0.004018311
0.003960599
0.003997859
0.003940196
0.003883723
0.003780329
0.003854652
0.003752881
0.003987291
0.003920478
0.003985744
0.003922547
0.003836209
0.003732126
0.003835335
0.003731078
0.003936677
0.003793278
0.004045424
0.003998366
0.003508748
0.00332162
0.003605253
0.003455514
0.003132773
0.002940734
0.003299211
0.00314454
0.003645301
0.003512674
0.003667255
0.003544824
0.003380823
0.003246497
0.003419463
0.003295702
0.003615781
0.003420482
0.003942656
0.003892126
0.002755941
0.002578456
0.002995865
0.002853357
0.002414887
0.002262043
0.002721638
0.002600828
0.003122847
0.003005297
0.003180372
0.003075722
0.002900991
0.002808045
0.002985221
0.002907095
0.004053562
0.004029771
0.004052213
0.004037916
0.003670786
0.003548651
0.003640155
0.00352158
0.003431119
0.003312176
0.003404084
0.003291225
0.003617817
0.00349634
0.00361523
0.0034942
0.003380895
0.003267004
0.003374715
0.003261148
0.004011155
0.004008965
0.004035582
0.004056162
0.003205852
0.003106861
0.003188411
0.00309837
0.003023965
0.002953895
0.003024276
0.002963591
0.003168126
0.003080164
0.003161296
0.003074381
0.003009533
0.002953378
0.003004526
0.002951321
0.002127721
0.001992526
0.001926062
0.001781223
0.001869133
0.001759179
0.001651911
0.001535685
0.001481794
0.001351997
0.001237713
0.001137043
0.001663593
0.001580642
0.001432975
0.001341253
0.001048989
0.0009723558
0.0009050711
0.003225322
0.003045991
0.003853388
0.003881566
0.002124037
0.001999534
0.002493618
0.002397557
0.001888939
0.001789969
0.002314594
0.002241745
0.002728857
0.002659712
0.002844851
0.0027971
0.002611006
0.002574329
0.002772605
0.002763602
0.002913599
0.003742463
0.003480317
0.001706518
0.001633028
0.002183684
0.00213425
0.001563499
0.002080617
0.002041854
0.002548835
0.002552746
0.002756704
0.002776895
0.002357569
0.002234788
0.002605474
0.002481844
0.004073087
0.004112888
0.004202245
0.003899181
0.002904478
0.002870517
0.002925487
0.002904241
0.002871034
0.002899099
0.002912912
0.00295269
0.002927867
0.002919667
0.002929467
0.002927172
0.002901418
0.00291976
0.002902045
0.002904901
0.003647476
0.004908973
0.003833696
0.005900732
0.002787626
0.002737521
0.00284111
0.002767954
0.002426663
0.00223519
0.002479489
0.002282818
0.002724793
0.002571387
0.002719059
0.0025513
0.002417801
0.002319216
0.00242225
0.002356605
0.00522598
0.001886351
0.001701166
0.002206672
0.002059314
0.002125779
0.008712753
0.01262282
0.008659884
0.01066252
0.002163622
0.002229423
0.002252736
0.002380157
0.002579694
0.002997429
0.002768015
0.003237516
0.002393798
0.002518037
0.0024545
0.002585651
0.002749115
0.003026033
0.002726879
0.002857723
0.01175456
0.003340782
0.003680864
0.00297196
0.003087483
0.002054319
0.01654856
0.004251684
0.01664233
0.004597694
0.02945339
0.00863142
0.02903329
0.008894263
0.001016919
0.0003118433
0.001125597
0.001473116
0.0004781363
0.0010239
0.0002219032
8.649199e-05
0.0003186733
0.0001397617
0.0002969799
0.0001143183
0.0004000766
0.0001761169
0.001745968
0.002205858
0.0006751739
0.002362856
0.0028584
0.0009295247
0.0003378098
0.001947698
0.0003384812
0.007351335
0.009242592
0.009221891
0.01706017
0.007494099
0.01768336
0.007249445
0.00931849
0.009212064
0.00282521
0.003615404
0.003157114
0.001040687
0.003697437
0.001173557
0.003898918
0.001335886
0.00147655
0.0004318952
0.0005360121
0.004011905
0.03139862
0.07779414
0.03879699
7.3905e-05
0.01691941
0.00500838
0.01690255
0.005495826
0.02880426
0.009173963
0.009537845
0.001319333
0.0003664407
0.001663735
0.0005573928
0.002318089
0.0005486581
0.002716004
0.0007865735
0.01744096
0.006045438
0.01934745
0.005817326
0.01003461
0.002141001
0.0007793266
0.002711253
0.001036356
0.003223068
0.001076579
1.18925e-05
1.445802e-05
1.818241e-05
2.251675e-05
1.655717e-05
2.852216e-05
2.028828e-05
3.59242e-05
2.465647e-05
1.437587e-05
1.697145e-05
4.648959e-05
3.050799e-05
5.913986e-05
3.696215e-05
2.052813e-05
2.41964e-05
1.681135e-05
6.829747e-05
4.183635e-05
9.425025e-05
5.536501e-05
2.881823e-05
2.061868e-05
3.529724e-05
2.394126e-05
0.0001478543
6.619891e-05
6.025013e-05
0.0001319614
6.95023e-05
8.850834e-05
0.0001794865
9.186219e-05
4.406047e-05
2.751646e-05
5.356409e-05
3.241485e-05
0.000256331
8.967163e-05
4.321253e-05
2.28631e-05
5.013161e-05
7.526697e-05
4.494236e-05
9.500135e-05
5.368589e-05
2.855087e-05
1.940045e-05
3.281158e-05
2.174464e-05
7.929303e-05
0.0001244578
6.390911e-05
9.226615e-05
0.0001416799
7.114146e-05
3.738707e-05
2.407274e-05
4.075676e-05
2.584055e-05
1.368386e-05
1.505921e-05
1.096205e-05
1.648865e-05
1.187982e-05
1.752093e-05
1.256069e-05
9.111603e-06
0.0001061376
0.0001606608
7.66793e-05
0.0001117495
4.679965e-05
4.32552e-05
2.716505e-05
1.836303e-05
1.314438e-05
9.532834e-06
0.0001242883
5.528278e-05
0.0002321537
0.000114395
0.0001640965
6.664006e-05
0.0002903657
0.0001352697
6.346309e-05
3.78295e-05
3.359979e-05
7.251409e-05
4.250126e-05
0.0003810646
0.0001910765
0.000565038
0.0002875895
0.0004613405
0.0002265074
0.0001099975
6.764135e-05
0.0001683301
0.0001070728
0.0001239725
7.53405e-05
0.0001867529
2.53531e-05
2.768573e-05
4.79484e-05
3.714765e-05
7.949424e-05
6.325978e-05
5.187157e-05
0.000123916
0.0001322714
0.0002108984
0.0002301136
6.970473e-05
0.0001785645
0.0003311667
0.0004225619
0.0001162954
9.738472e-05
0.0002246004
0.0001948887
0.0001745527
0.0001230373
0.0003484525
0.0002484545
0.0006479327
0.0005149251
4.322592e-06
0.0002083139
0.0005735423
0.0007543276
0.002112679
0.0009690836
0.003917578
0.002277511
0.0003056959
0.0001841776
0.0006629211
0.0003500729
0.0007058974
0.0003970442
0.001472603
0.0007361455
0.004159429
0.001637178
8.844534e-05
8.115628e-05
0.0001819905
0.0001723122
0.0001021567
8.927527e-05
0.0001965139
0.0001814134
0.0001658624
0.0001594326
0.0001764661
0.0001664208
0.0003826008
0.0003852681
0.000129269
0.0001006906
0.000233798
0.0001852114
0.0001866568
0.0001214682
0.0003173572
0.0002185436
8.950644e-05
0.0001898312
0.0001754412
9.964846e-05
8.640859e-05
0.0002034945
0.0001842095
0.00039295
0.0004279774
0.001900196
0.0009642921
0.004155151
0.001577456
0.008269244
0.003349509
0.01574514
0.006270508
0.0007986551
0.0008397997
0.001307154
0.001439339
0.0006171092
0.0009225899
0.0007128824
0.001564559
0.01551311
0.005605375
0.01390081
0.005574953
0.01317087
0.003846802
0.01053244
0.003961997
0.01002408
0.02989639
0.002596642
0.007212275
0.006607858
0.004748547
0.016533
0.004043264
0.001975042
8.983653e-06
0.004158448
6.014022e-05
8.794731e-05
0.0009310385
0.004935925
0.0003721502
0.001004977
0.0002159239
0.000688907
0.000231893
0.0004984016
0.0001205113
0.0003150738
0.002735694
0.009027421
0.002341023
0.0078704
0.0009916557
0.003457736
0.0009267533
0.00305285
0.0004005769
0.001148989
0.0001552886
0.0002680975
7.108531e-05
0.0001414063
0.0001042761
0.0001563737
4.387864e-05
7.021853e-05
0.0004765503
0.001349927
0.0003285968
0.0009718804
0.0002121469
0.0004263215
0.0001168673
0.000271551
0.02446476
0.06471063
0.02146867
0.0456524
0.0216133
0.04420166
0.007671252
0.02013524
0.008754316
0.01961486
0.06790146
0.00461884
0.01404921
0.003018546
0.007822159
0.002706545
0.006688415
0.0007231063
0.002310171
0.0007028296
0.001855428
0.0001038827
0.0002067743
6.095425e-05
0.00013332
7.616224e-05
0.0001364185
8.315195e-05
0.0003967849
0.0008705801
0.0002896566
0.0007014545
0.0002583033
0.0006067824
0.0001767184
0.0004440177
0.0005304232
0.0002740375
5.550705e-05
9.294452e-05
5.352566e-05
4.183325e-05
6.491442e-05
0.0001697636
0.0003548711
0.0001080631
0.0002445506
0.000111381
0.0002209644
6.652055e-05
0.0001461641
0.002009801
0.007527453
0.001303666
0.003117036
0.001077896
0.002756078
0.0006592469
0.001919602
0.001542983
0.007190711
0.0006694681
0.002682526
0.0003578437
0.0009706662
0.0004303897
0.002082325
0.004251719
0.001778076
0.003883366
0.0009041224
0.002292637
0.0007953892
0.001938787
0.00252123
0.005922568
0.01181971
0.005698757
0.01129624
0.002876645
0.0073234
0.006983786
0.006846116
0.001498801
0.003708792
0.00162843
3.145993e-05
4.573392e-05
2.44038e-05
3.353324e-05
7.283709e-05
0.0001272222
7.955231e-05
4.954971e-05
7.932496e-05
1.879652e-05
2.457769e-05
1.504371e-05
1.892075e-05
3.387826e-05
4.828795e-05
2.471402e-05
3.226643e-05
0.00018976
0.0007296751
0.0004478636
0.001075004
0.0008289272
0.0004953943
0.0001607732
0.0214495
0.04581998
0.02134511
0.008141252
0.01917841
0.007788513
0.07779587
0.1135141
0.002286994
0.006277542
0.0005027499
4.992682e-05
8.569748e-05
2.332488e-05
3.28128e-05
4.888433e-05
2.544214e-05
3.604858e-05
5.443118e-05
2.051519e-05
2.674606e-05
2.077982e-05
9.758597e-06
8.185064e-06
3.926992e-05
1.649986e-05
0.0001790692
0.0002556751
7.418553e-05
0.0001008258
3.015269e-05
4.233473e-05
5.138879e-05
6.829703e-05
2.033989e-05
2.771923e-05
0.0001225646
0.0001683231
5.407489e-05
8.273582e-05
7.968721e-05
8.750771e-05
3.278971e-05
3.68639e-05
8.729461e-05
9.780281e-05
3.724726e-05
4.744424e-05
2.708844e-05
3.34052e-05
5.367371e-05
5.570844e-05
3.631097e-05
3.712933e-05
0.000421827
0.0002522411
0.0006365173
0.0001652622
0.000396525
8.674311e-05
0.0001267867
4.452833e-05
7.310546e-05
6.782029e-05
0.0001204249
4.510642e-05
3.671671e-05
2.037346e-05
2.680661e-05
1.735912e-05
7.67107e-08
4.157399e-06
1.218166e-05
1.486589e-05
1.01055e-05
1.209486e-05
1.850412e-05
2.242017e-05
1.459554e-05
1.701892e-05
8.177674e-06
9.673612e-06
6.878458e-06
8.011309e-06
1.153971e-05
1.320223e-05
9.469565e-06
1.072722e-05
2.574493e-05
3.370296e-05
1.942476e-05
2.334099e-05
1.481454e-05
1.669149e-05
1.189371e-05
1.291087e-05
5.723764e-06
6.61973e-06
7.777549e-06
8.765539e-06
9.678356e-06
1.037894e-05
5.114749e-05
6.591041e-05
2.024064e-05
2.424131e-05
1.603236e-05
1.857207e-05
2.782339e-05
2.936165e-05
2.164254e-05
2.333119e-05
3.659845e-05
4.539971e-05
1.480215e-05
1.697705e-05
1.872098e-05
1.406378e-05
1.544749e-05
4.390353e-05
1.398156e-05
2.516263e-05
1.956264e-05
2.15031e-05
1.837548e-05
1.089252e-05
4.38351e-06
1.164779e-05
6.311748e-06
4.985625e-05
4.309195e-05
1.928469e-05
1.885739e-05
1.673416e-05
1.732799e-05
1.672456e-05
1.446491e-05
1.698654e-05
1.62206e-05
0.003478368
0.003489579
0.002258724
0.002237068
0.003510022
0.003509199
0.002183263
0.003816217
0.003148382
0.0024382
0.002164093
0.003686861
0.003405562
0.002256332
0.002214438
0.001338749
0.001314233
0.0008024095
0.0007798674
0.001342749
0.001310115
0.0007886957
0.001301348
0.001302564
0.0007664536
0.0007628503
0.0012892
0.001281352
0.0007674958
0.0007555724
0.0001507743
0.000147286
0.0001493141
0.001290716
0.001281647
0.001291406
0.001264521
0.00125251
0.0007624503
0.0007453961
0.001264028
0.001243395
0.0007411408
0.001342702
0.001419142
0.0007771814
0.0008201295
0.001298704
0.001352327
0.0007532951
0.000771785
0.001329259
0.001445317
0.0007951629
0.0008014256
0.001321599
0.001298339
0.0007926657
0.0008030685
0.0003565995
0.0003734298
0.0001532731
0.0001573557
0.0001493675
0.000152169
0.0001633204
0.0001701986
0.0001566052
0.0001614842
0.0001493632
0.0000489
0.0001514026
0.000154143
0.0001506632
0.0003836085
0.000346258
0.0001801814
0.0001917788
8.55379e-05
9.403921e-05
0.0001680323
0.0001744853
8.180347e-05
0.000199886
0.0002022105
0.0001044012
0.0001125685
0.0001782235
0.0001781983
8.744861e-05
9.252036e-05
0.0003634652
0.0003727604
0.0001584364
0.0001631262
0.0001522367
0.0001549817
0.0001677867
0.0001719515
0.0001588776
0.0001624484
0.001256814
0.001276177
0.0007365956
0.000737668
0.001236085
0.001237559
0.0007269519
0.0007186467
0.00130099
0.001330376
0.000750968
0.0007723381
0.001251877
0.001278288
0.0007185773
0.0007266147
0.0001442613
0.0001449158
0.0001466933
0.0001489069
0.0001509007
0.0001433904
0.0001324011
0.00344835
0.003444401
0.003402379
0.003370062
0.003488851
0.003550201
0.00212258
0.003365072
0.003402833
0.001273211
0.001244966
0.001222159
0.001206481
0.001197858
0.000701725
0.001174146
0.001197803
0.001204802
0.0006941143
0.000690669
0.001162261
0.001158049
0.0006672589
0.001114001
0.001102983
0.001097429
3.872772e-05
4.197765e-05
3.662659e-05
1.256748e-05
1.122406e-05
1.52973e-05
1.442321e-05
0.004022124
0.004024912
0.004023802
0.004023217
0.004023858
0.004029279
0.004028364
0.004035712
0.004035682
0.004027962
0.004028815
0.004036207
0.004037557
0.004036811
0.004049702
0.004035805
0.004049387
0.004064069
0.004078303
0.004064617
0.004080833
0.00403576
0.004050181
0.004037417
0.004053387
0.004066711
0.004084937
0.004071939
0.004092994
0.004054731
0.004088047
0.004058945
0.004099763
0.004016368
0.004030282
0.004026544
0.004032974
0.004042698
0.004050591
0.004031216
0.004038445
0.004039957
0.004046469
0.004049184
0.004054096
0.004056092
0.004059499
0.004047617
0.004042124
0.004060622
0.004052209
0.00407339
0.004082262
0.004106634
0.00409662
0.004119746
0.00406359
0.004083352
0.004064023
0.004069986
0.004103404
0.004120072
0.004069906
0.004060809
0.004071595
0.004120195
0.004084153
0.004114198
0.004142554
0.004259342
0.003940418
0.004006711
0.004036333
0.004073254
0.004133109
0.004229854
0.00314227
0.02996967
0.002944751
0.02931454
0.004094588
0.00411296
0.00409868
0.00411878
0.004113644
0.004134409
0.00412102
0.004142593
0.004134597
0.004159944
0.004141893
0.004168403
0.004127372
0.004105066
0.004127511
0.004116347
0.004142753
0.004133007
0.004158228
0.004155242
0.00418795
0.004153363
0.004182783
0.004173269
0.004208484
0.004125342
0.004180494
0.00414702
0.004216913
0.004159052
0.004187558
0.004169558
0.004189085
0.004188074
0.004224206
0.004197689
0.004232574
0.004248955
0.004520718
0.004371333
0.00417928
0.004265917
0.004505547
0.00429371
0.004588935
0.00419236
0.004198339
0.00423628
0.004238007
0.004216124
0.004247956
0.00425143
0.004279269
0.004629176
0.003135915
0.004955988
0.001727706
0.004374016
0.004541461
0.004546551
0.004228827
0.004237286
0.004560919
0.004277978
0.004676347
0.004133745
0.004164236
0.004145335
0.004172497
0.004226738
0.004228626
0.004200754
0.004244647
0.004207786
0.004252927
0.004138716
0.004156698
0.004049163
0.0040365
0.004173693
0.00399179
0.004182242
0.004217526
0.004030037
0.004032768
0.004174544
0.00424849
0.004137566
0.004170777
0.004297995
0.004363676
0.004300977
0.004428961
0.004302535
0.004343487
0.004321242
0.004386114
0.00505676
0.004129945
0.00472643
0.003344097
0.004698386
0.003764161
0.004752809
0.003811328
0.004225974
0.004382814
0.004019572
0.00409108
0.004278174
0.004342688
0.004062697
0.004096746
0.004464064
0.003499414
0.004407757
0.003658557
0.004682434
0.003823607
0.004378899
0.003715402
0.004341346
0.004589129
0.004234533
0.004377748
0.004043955
0.004041686
0.004049261
0.004024625
0.00398263
0.003917264
0.003836413
0.004018766
0.003969421
0.004024582
0.003976104
0.003899544
0.003813427
0.003902654
0.00381405
0.002619577
0.002609753
0.002113869
0.002022725
0.001517289
0.001481186
0.001434244
0.001392326
0.000837448
0.003579703
0.003608287
0.003216156
0.003189263
0.003648413
0.003707747
0.003203291
0.003244915
0.002597206
0.002594576
0.001978503
0.001955305
0.002614968
0.002661391
0.001954016
0.001975375
0.003838787
0.004095719
0.003368511
0.003454035
0.002266015
0.02055438
0.002642853
0.01884641
0.002782385
0.002814532
0.002102643
0.001961716
0.01017372
0.0019947
0.01164963
0.002408139
0.007868278
0.00045874
0.0004689053
0.0002911616
0.0004761822
0.0004903713
0.0002962084
0.0003090992
0.0001660131
8.823097e-05
0.0001685834
0.000176452
8.394155e-05
0.001356972
0.001331491
0.0008090381
0.0007886741
0.0007957722
0.0008011967
0.001322526
0.001330082
0.0007798278
0.0007799875
0.0003747555
0.0001599966
0.0001557446
0.0001635956
0.000170142
0.0001584517
0.0001638776
0.0001534969
0.0001553148
0.0001587427
0.000154873
0.003747773
0.003666466
0.003487005
0.002316215
0.003590625
0.003531546
0.001390016
0.001369081
0.001405906
0.001381839
0.003721929
0.003635292
0.003719329
0.003626455
0.00355604
0.003492659
0.003539447
0.003463608
0.003773835
0.02332676
0.004770923
0.0362263
0.004084049
0.006031057
0.003506163
0.008268731
0.06096984
0.07625889
0.06933903
0.07009159
0.0208789
0.04390327
0.02705871
0.04617145
0.009765408
0.0472873
0.02019134
0.05831752
0.00331907
0.01157961
0.003652069
0.01631522
0.06961605
0.06088248
0.06480195
0.0508502
0.03039645
0.04400592
0.03245204
0.04009935
0.003737429
0.007972671
0.003765621
0.008316826
0.06323988
0.04507276
0.05284461
0.03842942
0.05634402
0.05581983
0.05250846
0.04974054
0.03376112
0.02881194
0.0313557
0.02870901
0.04960802
0.04282189
0.04428201
0.03905713
0.04464049
0.03472069
0.03830895
0.03193108
0.04706989
0.04419612
0.04013733
0.03642145
0.03044296
0.02880397
0.02872742
0.02624214
0.03919099
0.03386924
0.03113708
0.02634761
0.01864444
0.02410173
0.01264337
0.01372407
0.03119838
0.05662748
0.02856697
0.04598595
0.005604861
0.018421
0.005312404
0.01381282
0.05324501
0.04163809
0.0424621
0.03469337
0.02915668
0.03249558
0.01992366
0.02134508
0.02633818
0.03824342
0.02243791
0.0288969
0.005042784
0.01024736
0.00466
0.006914822
0.03451917
0.02719733
0.02495807
0.01872031
0.01305972
0.0131804
0.008022107
0.008084238
0.004432282
0.006211798
0.00453887
0.004760396
0.03344923
0.02832672
0.02769811
0.02245709
0.03039241
0.02609883
0.01967834
0.0172315
0.02440845
0.02088537
0.01838974
0.02117584
0.01723977
0.01433749
0.01220835
0.02060583
0.01580244
0.01364129
0.01177472
0.01026914
0.00753892
0.007062529
0.008871313
0.007823955
0.006430366
0.005863402
0.00685703
0.006659953
0.004641204
0.004364064
0.02733059
0.02704789
0.02799216
0.02746735
0.03760727
0.03363936
0.03441686
0.03057623
0.02694973
0.02653718
0.02642309
0.02489421
0.03045766
0.02794116
0.02721087
0.02457772
0.0275173
0.02570214
0.02363954
0.02096911
0.02874237
0.02465644
0.02197387
0.01880295
0.02342652
0.02117457
0.01853827
0.01648055
0.02113172
0.01857994
0.01609858
0.01416165
0.02414892
0.02161423
0.01275487
0.01102234
0.02568059
0.02317339
0.02132378
0.02566936
0.02217172
0.02024388
0.01905754
0.01724396
0.01468622
0.0131305
0.01635135
0.01470555
0.01245022
0.01115372
0.01561602
0.01416242
0.01184239
0.01067784
0.01318276
0.01200164
0.00996879
0.009025865
0.01845995
0.009216798
0.00762675
0.01778717
0.01524919
0.01406758
0.01193758
0.01024767
0.008865984
0.01324679
0.01164659
0.009829661
0.008687961
0.01027059
0.009123638
0.00772921
0.006927625
0.006912028
0.006241419
0.005283498
0.004813652
0.006188475
0.004194967
0.005689626
0.00525027
0.004389555
0.004037383
0.006099403
0.005367733
0.004034035
0.003628358
0.01036212
0.009321058
0.007778764
0.007028896
0.008143856
0.007409022
0.006249071
0.005714684
0.008471882
0.007750821
0.006414754
0.00587753
0.00672331
0.006169154
0.005229426
0.004812894
0.004846697
0.004497624
0.003712307
0.003430437
0.004160421
0.003864546
0.003165602
0.002931722
0.004583583
0.00384573
0.00318328
0.002742328
0.04747832
0.05015908
0.03363888
0.03374005
0.03624065
0.0192326
0.02267771
0.01285625
0.02287816
0.02227481
0.01197606
0.01050657
0.01446505
0.008119277
0.006655827
0.004094169
0.01222865
0.0105805
0.008488162
0.007521473
0.01074391
0.01105739
0.007730039
0.007789885
0.00538462
0.004779649
0.003041328
0.002852298
0.004711327
0.004750989
0.002930948
0.002908182
0.03633548
0.04567029
0.03627518
0.04473468
0.04050182
0.02209405
0.03806783
0.02189969
0.09330533
0.109007
0.03399346
0.04245138
0.03258281
0.04094007
0.09704457
0.1138389
0.1020032
0.03123273
0.03954162
0.03007663
0.01988689
0.01370277
0.01170976
0.007936215
0.005981552
0.005045581
0.002041334
0.001424424
0.004744446
0.001000592
0.003306267
0.002064966
0.000850148
0.0005428925
0.007107842
0.006784676
0.008608986
0.004557873
2.956233e-05
0.0002697042
9.799341e-06
2.170809e-05
4.828977e-05
3.711515e-05
1.907733e-05
0.0001518207
0.0001026594
0.0001011341
8.434263e-05
0.0003699599
0.0005447802
0.001572856
0.001497869
0.0005103477
0.0005762565
0.0007909043
0.0002948706
0.001504748
0.001429554
0.0006105815
0.0005724837
3.894264e-05
5.632187e-05
7.322511e-05
0.004405135
0.004093245
0.002712203
0.002383773
0.001272885
0.00108274
0.0004905743
0.0003998259
0.000900262
0.0007550366
0.0006257975
0.01204804
0.01588267
0.00471775
0.005763183
0.003591314
0.004220089
0.002326512
0.00249755
0.01395118
0.0104499
0.005271011
0.004284486
0.004504937
0.00453834
0.00253499
0.002479729
0.001930106
0.002351239
0.0007441372
0.0008298063
0.00123186
0.001275511
0.0007806559
0.0007869757
0.002511657
0.002394728
0.0008920644
0.0009162765
0.001441994
0.001585947
0.000809478
0.0008417897
0.00018975
0.000197242
0.0001791491
0.0001517044
0.0001131078
0.0001070049
0.0001684859
0.0001560838
9.570826e-05
9.507322e-05
0.0001362091
0.0001268568
9.851174e-05
8.981213e-05
0.0001462436
0.0001431499
9.148555e-05
8.671309e-05
0.0003807902
0.0003923773
0.0001742204
0.0001753126
8.200048e-05
8.298492e-05
0.0001670158
0.0001701684
0.0001755665
0.0001749441
8.219055e-05
0.0001716598
0.0001711969
0.0002511182
0.0003049736
0.0001264827
0.0001293046
0.0001477816
0.0001514837
0.0001317011
0.0001514157
0.0001473607
0.0003986493
0.0003912678
0.000172686
0.0001684305
0.000167933
0.0001628072
0.0001611902
0.0001525143
0.0001552283
0.0001469366
0.001381253
0.001443933
0.0007971073
0.0008262975
0.001295973
0.001320922
0.0007377683
0.0007500725
0.001498153
0.001531416
0.0008456921
0.0008478502
0.001336636
0.001346411
0.0007547015
0.0007489698
0.0003546136
0.0003619095
0.0001527042
0.0001540502
0.0001441032
0.0001446536
0.0001547297
0.0001542408
0.0001448269
0.0001442716
0.0001343833
0.0001352404
0.0001351937
0.0001340904
0.0003612423
0.0003486151
0.0001522233
0.0001485952
0.0001421635
0.0001396953
0.0001428825
0.0001370383
0.002214559
0.002043369
0.000923268
0.0008921497
0.001663443
0.001657947
0.0008529706
0.0008214071
0.001840622
0.001614899
0.000809601
0.0006872453
0.001561489
0.001429881
0.0007464745
0.0006482354
0.0003630693
0.0001412766
0.000129469
0.000136403
0.0001268713
0.0001168766
0.0001046815
8.656453e-05
0.00151871
0.001475299
0.0008253357
0.0007755301
0.001343993
0.001322546
0.0007263208
0.0006888523
0.001400227
0.001310789
0.0007050911
0.000623068
0.001275472
0.001212012
0.0006394207
0.00368463
0.003879151
0.002201821
0.002301006
0.003447207
0.00352223
0.00404688
0.00412093
0.00235743
0.002330425
0.003505641
0.00345567
0.001218173
0.001235073
0.000689715
0.0006896956
0.001160441
0.00116551
0.0006600174
0.001248757
0.001255728
0.0006865041
0.0006774978
0.001169098