/*--------------------------------*- C++ -*----------------------------------*\
| =========                 |                                                 |
| \\      /  F ield         | OpenFOAM: The Open Source CFD Toolbox           |
|  \\    /   O peration     | Version:  2206                                  |
|   \\  /    A nd           | Website:  www.openfoam.com                      |
|    \\/     M anipulation  |                                                 |
\*---------------------------------------------------------------------------*/
FoamFile
{
    version     2.0;
    format      ascii;
    arch        "LSB;label=32;scalar=64";
    class       volScalarField;
    location    "0/fluid_0";
    object      nut;
}
// * * * * * * * * * * * * * * * * * * * * * * * * * * * * * * * * * * * * * //

dimensions      [0 2 -1 0 0 0 0];

internalField   nonuniform List<scalar> 
55970
(
6.817812e-05
6.646924e-05
7.048504e-05
4.509427e-05
4.471303e-05
3.293603e-05
2.517452e-05
2.019782e-05
4.429203e-05
3.193321e-05
4.51255e-05
3.249162e-05
2.455652e-05
1.980104e-05
2.537079e-05
2.042096e-05
2.613993e-07
7.80639e-07
3.988254e-07
3.398491e-06
1.061693e-06
3.536192e-06
1.238699e-06
1.290796e-07
1.088787e-07
2.388206e-07
2.01865e-07
2.693462e-07
1.316746e-07
4.112052e-07
2.580163e-07
9.931671e-07
1.351816e-05
1.674211e-05
1.427139e-05
5.763291e-07
1.205736e-05
1.095696e-05
1.233281e-06
1.244739e-05
1.118293e-05
1.651466e-05
1.409508e-05
1.686938e-05
1.435171e-05
1.225725e-05
1.094097e-05
1.234556e-05
1.089015e-05
0.0001272906
0.0001591271
0.0001497052
0.0001223955
0.0001403113
0.0001894834
0.0001741913
0.0002019706
0.0001640548
0.0001865871
0.0001181981
0.0001128726
0.0001164919
0.0001113838
0.0001501268
0.0001481337
0.0001457821
0.0001440122
0.0001187508
0.0001039994
0.0001313066
0.000140693
7.919072e-05
6.274716e-05
0.0001297507
0.0001384543
0.0001940734
0.0001556358
0.0001632745
0.0001676148
0.0001784302
0.0001615954
0.0001772938
0.0001610009
0.0001757916
0.0001128396
0.0001074364
0.0001363219
0.0001322471
0.0002281843
0.0002495602
0.0002049
0.0002227549
0.000263314
0.0002793077
0.000234397
0.0002424924
0.000180366
0.000177461
0.0001684874
0.0001652948
0.0001925849
0.0001874689
0.0001781179
0.0001734641
0.0002135247
0.0002171356
0.0001895988
0.0001993201
0.0001956424
0.0002054158
0.0002342443
0.0002629815
0.000185809
0.0002081238
0.000179143
0.0001964875
0.0002069856
0.0002122968
0.0002037641
0.0002035069
0.0001845109
0.0001977159
0.0001720488
0.0001796474
0.0001509259
0.0001372209
0.0001512559
0.0001286599
3.960842e-05
9.361535e-05
5.157827e-05
4.338177e-05
0.0001228844
0.000104981
3.442886e-05
3.049296e-05
8.128074e-05
7.063575e-05
3.728829e-05
3.271018e-05
8.954543e-05
7.765615e-05
0.00019992
0.0001813958
0.0002385099
0.0002070269
0.0001648958
0.0001696229
0.000155704
0.0001565684
0.0001464591
0.0001114852
0.0001567597
0.0001107758
0.0001335562
0.0001127648
0.000120401
9.934131e-05
7.359511e-05
5.450076e-05
0.0001231298
9.86812e-05
2.743836e-05
2.510177e-05
6.247924e-05
5.56028e-05
2.921136e-05
2.650227e-05
6.812194e-05
6.066961e-05
2.325812e-05
2.183089e-05
4.969112e-05
3.899026e-05
2.433116e-05
2.26334e-05
4.899265e-05
3.998322e-05
8.414571e-05
6.308757e-05
8.061786e-05
5.860778e-05
8.375241e-05
6.702034e-05
7.413206e-05
5.851367e-05
4.765166e-05
3.569328e-05
4.186431e-05
3.162295e-05
5.001784e-05
3.966607e-05
4.433308e-05
3.454453e-05
4.283421e-05
3.523386e-05
6.952152e-05
4.678996e-05
0.0002695018
0.0002126033
0.0002781804
0.0002040047
0.0001809942
0.000177114
0.0001637835
0.0001531612
0.0001490043
0.0001014464
0.0001406673
9.336572e-05
0.0001230721
9.808182e-05
0.0001083409
8.532971e-05
0.0002512832
0.0001807744
0.0001556723
0.0001583452
0.0001433335
0.000142812
0.0001259961
0.0001225532
8.021477e-05
0.0001066435
7.01761e-05
9.693071e-05
7.614668e-05
8.809283e-05
6.830102e-05
0.0001192193
8.839281e-05
0.0001040784
7.325556e-05
7.23159e-05
5.018555e-05
6.325655e-05
4.393688e-05
6.89907e-05
5.361926e-05
6.129781e-05
4.689542e-05
3.617505e-05
2.622476e-05
3.053111e-05
2.166377e-05
3.892264e-05
3.042665e-05
3.473592e-05
2.620614e-05
5.450707e-05
3.732773e-05
4.790252e-05
3.180024e-05
5.283597e-05
4.044638e-05
4.857681e-05
3.652876e-05
2.489066e-05
1.725166e-05
2.162783e-05
1.424026e-05
2.857259e-05
2.154573e-05
2.631862e-05
1.936423e-05
5.887784e-05
3.829575e-05
4.756338e-05
3.063879e-05
7.784076e-07
3.710981e-06
1.460174e-06
4.228625e-07
3.632039e-07
6.356467e-07
5.481771e-07
6.137293e-07
4.386404e-07
7.884596e-08
5.157816e-08
1.600816e-07
1.301549e-07
1.060844e-07
6.397693e-08
1.757933e-07
1.477291e-07
3.769082e-08
2.950037e-08
1.108991e-07
9.340705e-08
4.307154e-08
3.256253e-08
1.203994e-07
9.974227e-08
2.515049e-07
2.355224e-07
3.771146e-07
3.719786e-07
2.436569e-07
2.494288e-07
2.471407e-07
2.189869e-07
4.716343e-07
4.378233e-07
2.595068e-07
2.312096e-07
8.704204e-08
8.42445e-08
1.133208e-07
1.235442e-07
6.786579e-08
5.019271e-08
1.057356e-07
7.773255e-08
1.550413e-06
6.216525e-06
6.108314e-06
9.639588e-06
9.612283e-06
1.11422e-06
1.917986e-06
1.512039e-06
1.002446e-06
8.173275e-07
1.613746e-06
1.144874e-06
4.000995e-07
4.510909e-07
5.100758e-07
4.099566e-07
8.174782e-06
8.079057e-06
7.849298e-06
7.736463e-06
7.750839e-06
7.561772e-06
7.25049e-06
7.062728e-06
6.675499e-06
7.020123e-06
6.883066e-06
6.348084e-06
6.083574e-06
6.810179e-06
5.839248e-06
5.654973e-06
2.07245e-05
2.001347e-05
3.02187e-05
2.375405e-05
2.130271e-05
2.035235e-05
3.208998e-05
2.60693e-05
1.867121e-05
1.555159e-05
1.868245e-05
1.482168e-05
1.972023e-05
1.732146e-05
2.107848e-05
1.74697e-05
2.718659e-05
1.173915e-06
2.36738e-05
1.032552e-06
3.034296e-05
2.440097e-05
2.703803e-05
2.123618e-05
3.172002e-06
1.523431e-06
1.197279e-06
2.04631e-05
1.900935e-05
1.520374e-05
1.663866e-05
1.217018e-05
3.019628e-05
2.282425e-05
3.16828e-05
2.143722e-05
1.26848e-05
9.967973e-06
1.090027e-05
1.43452e-05
1.423409e-05
1.2119e-05
1.392084e-05
1.175429e-05
1.606588e-05
2.576076e-05
2.42654e-05
4.093215e-05
1.14909e-05
1.979988e-05
1.912763e-05
2.812783e-05
4.105815e-05
5.174721e-05
5.172532e-05
5.258335e-05
2.862977e-05
4.222138e-05
4.204808e-05
5.217941e-05
1.589104e-05
1.401397e-05
2.799345e-05
1.882722e-05
3.095522e-06
1.560729e-05
9.874293e-06
2.25013e-05
1.80073e-05
1.992231e-05
1.47608e-05
1.22006e-06
1.47236e-05
1.550023e-05
3.152369e-05
1.239801e-05
1.902963e-05
1.249697e-05
1.916746e-05
1.16051e-05
1.499224e-05
9.758111e-06
1.482283e-05
1.562184e-05
1.063293e-05
1.376901e-05
1.527438e-05
2.178567e-05
3.986238e-05
3.168078e-05
4.294901e-05
1.438023e-05
2.538705e-05
1.783185e-05
3.180704e-05
2.574153e-05
1.358068e-05
1.880514e-05
1.792022e-05
3.773894e-05
5.033211e-05
4.649221e-05
4.914762e-05
2.41601e-05
3.914684e-05
3.30246e-05
4.589123e-05
5.105877e-05
4.401478e-05
4.241243e-05
3.349925e-05
4.979999e-05
5.296694e-05
5.056942e-05
4.84302e-05
4.699765e-05
4.203788e-05
4.14714e-05
3.331853e-05
3.928454e-05
4.695635e-05
4.158577e-05
4.411993e-05
3.306982e-05
2.623338e-05
2.59344e-05
2.229199e-05
4.68423e-05
4.258057e-05
4.159803e-05
3.757824e-05
2.384565e-05
3.897982e-05
2.938481e-05
3.931917e-05
5.339985e-05
4.650292e-05
3.927737e-05
5.159185e-05
5.489394e-05
5.479097e-05
5.181732e-05
4.258898e-05
3.585738e-05
3.024823e-05
2.752941e-05
2.523221e-05
5.00213e-05
4.464782e-05
4.333625e-05
3.830833e-05
2.338233e-05
2.3617e-05
2.201638e-05
2.360054e-05
3.799565e-05
3.458229e-05
3.448018e-05
3.275377e-05
4.685116e-05
4.282391e-05
6.706954e-05
5.755914e-05
3.911829e-05
4.486626e-05
3.218959e-05
3.957603e-05
2.802836e-05
2.491164e-05
1.958694e-05
2.115226e-05
1.666355e-05
2.623953e-05
1.807536e-05
1.380399e-05
1.085273e-05
1.615257e-05
1.365036e-05
1.371218e-05
1.137025e-05
1.162758e-05
1.008208e-05
9.71001e-06
8.394983e-06
8.786122e-06
7.252814e-06
6.127462e-06
5.261627e-06
8.84442e-06
7.895635e-06
7.348469e-06
6.485809e-06
7.141652e-06
6.522657e-06
5.795777e-06
5.217315e-06
4.585303e-06
4.031647e-06
3.587082e-06
3.222948e-06
9.015259e-05
8.594715e-05
8.829057e-05
8.608257e-05
0.0001064351
0.0001049573
0.0001020078
0.0001022338
6.511695e-05
7.013024e-05
7.653497e-05
7.783135e-05
8.973989e-05
7.358177e-05
0.0001024267
9.584084e-05
4.323795e-05
3.116803e-05
5.290008e-05
3.714497e-05
2.347212e-05
1.827423e-05
2.773944e-05
2.221782e-05
5.700262e-05
3.883603e-05
5.896474e-05
4.186003e-05
2.994628e-05
2.394373e-05
3.167875e-05
2.558346e-05
0.0001152051
0.0001155128
0.0001110814
0.000109924
0.0001188496
0.0001181754
0.0001131945
0.0001122392
7.505905e-05
7.78923e-05
7.11317e-05
7.330571e-05
0.0001072796
9.606876e-05
0.0001052715
9.083129e-05
5.90316e-05
4.119499e-05
5.379715e-05
3.921896e-05
3.194789e-05
2.565356e-05
3.00317e-05
2.460841e-05
4.944764e-05
3.604065e-05
4.948832e-05
3.710407e-05
2.866698e-05
2.354737e-05
2.889604e-05
2.371417e-05
4.988059e-05
3.67873e-05
8.608023e-05
7.033172e-05
1.488932e-05
1.239155e-05
1.828764e-05
1.555805e-05
1.068597e-05
9.341952e-06
1.353447e-05
1.209768e-05
2.020765e-05
1.737542e-05
2.136639e-05
1.851664e-05
1.536515e-05
1.386022e-05
1.637944e-05
1.489225e-05
2.893898e-05
2.377461e-05
5.806539e-05
4.67437e-05
8.295558e-06
7.457838e-06
1.096299e-05
1.005774e-05
6.797668e-06
6.264349e-06
9.389678e-06
8.825765e-06
1.276135e-05
1.193315e-05
1.381191e-05
1.30437e-05
1.132192e-05
1.084691e-05
1.245981e-05
1.202587e-05
8.354669e-05
6.896517e-05
7.640545e-05
6.156174e-05
2.176009e-05
1.882711e-05
2.088803e-05
1.826574e-05
1.680359e-05
1.527418e-05
1.637852e-05
1.503598e-05
2.005233e-05
1.760468e-05
2.009241e-05
1.757722e-05
1.591761e-05
1.467402e-05
1.582837e-05
1.459427e-05
5.453433e-05
4.154917e-05
4.797278e-05
3.623329e-05
1.426356e-05
1.353449e-05
1.413637e-05
1.350517e-05
1.302423e-05
1.262263e-05
1.304675e-05
1.273923e-05
1.389358e-05
1.330975e-05
1.382276e-05
1.326688e-05
1.293175e-05
1.267994e-05
1.28967e-05
1.267853e-05
6.011252e-06
5.569929e-06
4.723061e-06
4.308596e-06
5.174923e-06
4.852722e-06
3.970224e-06
3.674975e-06
2.921665e-06
2.663173e-06
2.447519e-06
2.259222e-06
4.575639e-06
4.339676e-06
3.418875e-06
3.198221e-06
2.098551e-06
1.957349e-06
1.83438e-06
2.014016e-05
1.753202e-05
3.631372e-05
2.840757e-05
5.834128e-06
5.45879e-06
8.365014e-06
7.988512e-06
5.157788e-06
4.909919e-06
7.70478e-06
7.492872e-06
1.049269e-05
1.023032e-05
1.17465e-05
1.158437e-05
1.011237e-05
1.006177e-05
1.159072e-05
1.169632e-05
1.562147e-05
2.000776e-05
1.389164e-05
4.719531e-06
4.556663e-06
7.338433e-06
7.228689e-06
4.404955e-06
7.076144e-06
6.957712e-06
1.00342e-05
1.01239e-05
1.173982e-05
1.189352e-05
9.203252e-06
8.639968e-06
1.09035e-05
1.017442e-05
3.235664e-05
2.370915e-05
2.799326e-05
1.776402e-05
1.242926e-05
1.23926e-05
1.265427e-05
1.268658e-05
1.25308e-05
1.281111e-05
1.285604e-05
1.32357e-05
1.267039e-05
1.278243e-05
1.26571e-05
1.276738e-05
1.275596e-05
1.289353e-05
1.270432e-05
1.272184e-05
1.471369e-05
1.609253e-05
1.331666e-05
1.903444e-05
1.22103e-05
1.194023e-05
1.258914e-05
1.210753e-05
1.006912e-05
8.919238e-06
1.026424e-05
9.042566e-06
1.17242e-05
1.081708e-05
1.150721e-05
1.048645e-05
9.673166e-06
8.901466e-06
9.471943e-06
8.834911e-06
1.790283e-05
6.963275e-06
6.054339e-06
8.521776e-06
7.590643e-06
7.321848e-06
2.490881e-05
3.148673e-05
2.478426e-05
2.871885e-05
8.072751e-06
7.887043e-06
8.327309e-06
8.346862e-06
8.624488e-06
9.572311e-06
9.197138e-06
1.029078e-05
8.758529e-06
8.823895e-06
8.771646e-06
8.772744e-06
9.214419e-06
9.664375e-06
8.734368e-06
8.634168e-06
3.102322e-05
1.018158e-05
1.072034e-05
8.491936e-06
8.37132e-06
2.395804e-08
3.849671e-07
6.795049e-08
4.19671e-07
8.810848e-08
8.480229e-07
1.610436e-07
8.810504e-07
1.889527e-07
1.462952e-08
4.386269e-09
1.382987e-08
2.177533e-08
6.822531e-09
1.980691e-08
4.254243e-09
1.727698e-09
7.957975e-09
3.853045e-09
5.648548e-09
2.254894e-09
9.620067e-09
4.648203e-09
2.24156e-08
3.334535e-08
9.685811e-09
3.203039e-08
4.46519e-08
1.348529e-08
4.839383e-09
3.698361e-08
7.342507e-09
1.033583e-07
1.357073e-07
1.429394e-07
3.546299e-07
1.134463e-07
3.826724e-07
1.183556e-07
1.534849e-07
1.615628e-07
3.513316e-08
4.752578e-08
4.475108e-08
1.273562e-08
5.949986e-08
1.716836e-08
5.765918e-08
1.671125e-08
2.182894e-08
6.205845e-09
7.692286e-09
0.0003614585
3.473994e-06
3.930046e-06
1.501132e-06
3.007507e-08
4.622742e-07
1.129172e-07
5.018183e-07
1.436365e-07
9.222468e-07
2.202589e-07
2.575686e-07
3.365625e-08
1.328554e-08
5.255316e-08
2.659076e-08
5.509444e-08
1.720963e-08
7.796644e-08
3.211261e-08
5.659573e-07
1.814909e-07
6.836744e-07
1.977244e-07
3.033311e-07
7.991e-08
4.538665e-08
1.156667e-07
6.544091e-08
1.081173e-07
5.314373e-08
3.407762e-10
4.175783e-10
5.325157e-10
6.704403e-10
4.809278e-10
8.588996e-10
5.999415e-10
1.095092e-09
7.440019e-10
4.209881e-10
5.03705e-10
1.415745e-09
9.27864e-10
1.794422e-09
1.13224e-09
6.14996e-10
7.33193e-10
4.934266e-10
6.992719e-09
4.371945e-09
9.368696e-09
5.867157e-09
2.941295e-09
2.006827e-09
3.725834e-09
2.405545e-09
2.664507e-08
1.337275e-08
3.375988e-09
1.221046e-08
7.317819e-09
4.768439e-09
1.511463e-08
9.536479e-09
4.792153e-09
2.881202e-09
5.940478e-09
3.52022e-09
3.971952e-08
1.866338e-08
8.108789e-09
2.340015e-09
9.983321e-09
2.248824e-09
1.377404e-09
2.780954e-09
1.646552e-09
8.797544e-10
5.847723e-10
1.022479e-09
6.653825e-10
1.586226e-09
3.571272e-09
1.955485e-09
1.861004e-09
4.005963e-09
2.17101e-09
1.173058e-09
7.458441e-10
1.288329e-09
8.118613e-10
4.078532e-10
4.537831e-10
3.262636e-10
5.023589e-10
3.55305e-10
5.399649e-10
3.788593e-10
2.693825e-10
2.137144e-09
4.441363e-09
2.32377e-09
2.248288e-09
9.625539e-10
1.36986e-09
8.583935e-10
5.711108e-10
3.980529e-10
2.833606e-10
6.238938e-09
3.257227e-09
1.746359e-08
1.152052e-08
7.594191e-09
3.873636e-09
1.931115e-08
1.298902e-08
7.095362e-09
4.189683e-09
2.04899e-09
8.102933e-09
4.780376e-09
3.662495e-08
2.745772e-08
6.444858e-08
5.256778e-08
3.880117e-08
3.035714e-08
1.891637e-08
1.206494e-08
3.9276e-08
2.704805e-08
2.110195e-08
1.359852e-08
4.251125e-08
2.667929e-09
2.963949e-09
8.290631e-09
6.220141e-09
1.956384e-08
1.438519e-08
9.096595e-09
3.055214e-08
3.581139e-08
5.914941e-08
7.539849e-08
1.158734e-08
3.616461e-08
5.82528e-08
9.645742e-08
3.441843e-08
2.997067e-08
8.895595e-08
8.586452e-08
4.443339e-08
3.711521e-08
1.092949e-07
9.989475e-08
1.521035e-07
2.275059e-07
4.007916e-10
2.57251e-08
5.53638e-08
9.796034e-08
1.087294e-07
6.661185e-08
2.295479e-07
1.736114e-07
5.517472e-08
4.846983e-08
1.337339e-07
1.098085e-07
7.743899e-08
7.921149e-08
1.788973e-07
1.697443e-07
4.076733e-07
3.750781e-07
2.674139e-08
2.332705e-08
8.508483e-08
7.941306e-08
3.237733e-08
2.73433e-08
9.241045e-08
8.656032e-08
7.421913e-08
6.946047e-08
8.211883e-08
7.495575e-08
2.599023e-07
2.670335e-07
4.150988e-08
3.276254e-08
1.0473e-07
9.00014e-08
5.670347e-08
4.09614e-08
1.277586e-07
1.06269e-07
2.765808e-08
9.149433e-08
8.146343e-08
3.233204e-08
2.623758e-08
1.005549e-07
8.753834e-08
2.388071e-07
3.060522e-07
5.068836e-07
5.166622e-07
1.173883e-06
9.297587e-07
9.649995e-07
8.861034e-07
2.050247e-06
1.726383e-06
7.362465e-07
9.143705e-07
1.216126e-06
2.158734e-06
4.100126e-07
9.910955e-07
4.752768e-07
1.752505e-06
6.169233e-07
8.418844e-08
2.753283e-07
7.625331e-08
2.48591e-07
5.268974e-08
1.869523e-07
4.859835e-08
1.66826e-07
8.169005e-07
3.228471e-08
1.139709e-07
9.57876e-08
6.551126e-08
3.544139e-07
8.814394e-05
1.813401e-06
4.951068e-10
1.155369e-05
1.484283e-08
3.019336e-08
6.146205e-08
1.755294e-07
2.110361e-08
3.752158e-08
8.989027e-09
2.061281e-08
1.566867e-08
2.297202e-08
5.685753e-09
1.117197e-08
7.649539e-08
2.415031e-07
5.464466e-08
1.865441e-07
3.201414e-08
9.236595e-08
2.399012e-08
6.916845e-08
4.124522e-08
5.902505e-08
1.243663e-08
1.553951e-08
3.693158e-09
5.944925e-09
9.3454e-09
1.117879e-08
2.389596e-09
3.39564e-09
1.929315e-08
4.116565e-08
1.0204e-08
2.4146e-08
1.098686e-08
1.650142e-08
4.397671e-09
8.167267e-09
9.044494e-07
3.274661e-06
6.812777e-07
1.817901e-06
6.38374e-07
1.676551e-06
2.084141e-07
6.358913e-07
2.122315e-07
5.718157e-07
3.178898e-06
1.630641e-07
4.78644e-07
7.91622e-08
2.119755e-07
6.014353e-08
1.60135e-07
2.232703e-08
6.349438e-08
1.760542e-08
4.256443e-08
2.967137e-09
5.381109e-09
1.219047e-09
2.613738e-09
2.224301e-09
3.710402e-09
1.647375e-09
9.155399e-09
1.847213e-08
5.363453e-09
1.238763e-08
6.311389e-09
1.347009e-08
3.363857e-09
7.984204e-09
7.548197e-09
3.866528e-09
1.646335e-09
2.626352e-09
1.057139e-09
1.241275e-09
1.876554e-09
4.388676e-09
8.323468e-09
2.098288e-09
4.521621e-09
3.002311e-09
5.457843e-09
1.286476e-09
2.752692e-09
3.762679e-08
1.567875e-07
1.913498e-08
4.949759e-08
1.328049e-08
3.848246e-08
9.367396e-09
2.867159e-08
1.963543e-08
1.305082e-07
1.294649e-08
5.083382e-08
5.024808e-09
1.391905e-08
6.006852e-09
3.1938e-08
7.213712e-08
2.370064e-08
5.937628e-08
1.302084e-08
3.547637e-08
9.621962e-09
2.61796e-08
3.064329e-08
9.010651e-08
2.295775e-07
7.874188e-08
2.093153e-07
3.753074e-08
1.189134e-07
1.049087e-07
9.541984e-08
1.716191e-08
5.08259e-08
1.903772e-08
9.29488e-10
1.343665e-09
7.143711e-10
9.812893e-10
2.041916e-09
3.3271e-09
1.509117e-09
1.416204e-09
2.155242e-09
5.438914e-10
7.141947e-10
4.313403e-10
5.457098e-10
9.745421e-10
1.35879e-09
7.049721e-10
9.105281e-10
4.000329e-09
1.385708e-08
6.252269e-09
1.571885e-08
1.014883e-08
6.903149e-09
3.351058e-09
5.914603e-07
1.657705e-06
5.505755e-07
1.756793e-07
5.190233e-07
1.486671e-07
3.616515e-06
6.502113e-06
4.211528e-08
1.322338e-07
9.596025e-09
9.597691e-09
1.64835e-08
2.296763e-09
3.357898e-09
5.056418e-09
2.521849e-09
3.690073e-09
1.030128e-08
1.964402e-09
2.66288e-09
1.978109e-09
2.779156e-10
2.311734e-10
6.937841e-09
1.491241e-09
2.648208e-08
2.299395e-08
7.236893e-09
8.626777e-09
1.683266e-09
2.241544e-09
5.17238e-09
6.471901e-09
1.140092e-09
1.52586e-09
8.320876e-09
8.775509e-09
2.499717e-09
3.120844e-09
6.554336e-09
5.934437e-09
1.687092e-09
1.663676e-09
1.548569e-08
1.36563e-08
3.764609e-09
4.71718e-09
2.646992e-09
3.274577e-09
4.966277e-09
4.605097e-09
3.43287e-09
3.311673e-09
2.37985e-08
1.036621e-08
2.160294e-08
5.210074e-09
1.074193e-08
4.7356e-09
5.740512e-09
1.731323e-09
2.479393e-09
6.983999e-09
9.432872e-09
3.204223e-09
2.237617e-09
8.332064e-10
2.184356e-09
1.290038e-09
5.152818e-12
2.558127e-10
3.485609e-10
4.264573e-10
2.867556e-10
3.443189e-10
5.288062e-10
6.330131e-10
4.129279e-10
4.786722e-10
2.318192e-10
2.735971e-10
1.94281e-10
2.265854e-10
3.248809e-10
3.696533e-10
2.65883e-10
2.99703e-10
7.038538e-10
9.056077e-10
5.355651e-10
6.390414e-10
4.103448e-10
4.587238e-10
3.274355e-10
3.520529e-10
1.599701e-10
1.851868e-10
2.1745e-10
2.443619e-10
2.666017e-10
2.823677e-10
9.29155e-09
1.127429e-08
1.886347e-09
2.284466e-09
1.422454e-09
1.675456e-09
2.59236e-09
2.666514e-09
1.95203e-09
2.073941e-09
6.36482e-09
7.99178e-09
1.278731e-09
1.475199e-09
1.623004e-09
1.186994e-09
1.313214e-09
6.633534e-09
1.861904e-09
2.172154e-09
1.615443e-09
1.862502e-09
1.55117e-09
8.54626e-10
3.260099e-10
9.538361e-10
5.050627e-10
8.573957e-09
7.143709e-09
1.654403e-09
1.598959e-09
1.432577e-09
1.462299e-09
1.393969e-09
1.20128e-09
1.417014e-09
1.35495e-09
1.694381e-05
1.136937e-05
4.724406e-06
4.967433e-06
1.831969e-05
1.460053e-05
4.538741e-06
6.757612e-06
3.761405e-06
4.50639e-06
2.285244e-06
1.056417e-05
5.816741e-06
4.928098e-06
4.103189e-06
1.770778e-06
1.811919e-06
7.825399e-07
7.776282e-07
1.740478e-06
1.762412e-06
7.62474e-07
1.86711e-06
1.93503e-06
7.835407e-07
8.02584e-07
1.802245e-06
1.857217e-06
7.632815e-07
7.744133e-07
6.277583e-08
6.021883e-08
6.047912e-08
1.554302e-06
1.626165e-06
1.641779e-06
1.683349e-06
1.740958e-06
7.527441e-07
7.527445e-07
1.67154e-06
1.705931e-06
7.210272e-07
2.03399e-06
2.045021e-06
8.413426e-07
8.76215e-07
1.93841e-06
2.030547e-06
7.973049e-07
8.345435e-07
1.246003e-06
9.626433e-07
6.937369e-07
4.780465e-07
1.78365e-06
1.288263e-06
8.354041e-07
7.65899e-07
2.345235e-07
2.570877e-07
6.503192e-08
6.82017e-08
6.219376e-08
6.44397e-08
7.268844e-08
7.750325e-08
6.750072e-08
7.080807e-08
6.139279e-08
6.233981e-08
6.362499e-08
6.565812e-08
6.413591e-08
2.420915e-07
1.688287e-07
8.216756e-08
8.541105e-08
2.520452e-08
2.825107e-08
7.474027e-08
7.821549e-08
2.311045e-08
8.311833e-08
7.863748e-08
3.110802e-08
3.278116e-08
7.827976e-08
7.658587e-08
2.530009e-08
2.690906e-08
2.470439e-07
2.470385e-07
6.84487e-08
7.1345e-08
6.468727e-08
6.573049e-08
7.356101e-08
7.517756e-08
6.721662e-08
6.850389e-08
1.81642e-06
1.89917e-06
7.619067e-07
7.799905e-07
1.756651e-06
1.813222e-06
7.26112e-07
7.333742e-07
1.938941e-06
1.934422e-06
8.069359e-07
8.299203e-07
1.86985e-06
1.930875e-06
7.466546e-07
7.657251e-07
5.973476e-08
5.988285e-08
6.041124e-08
6.12792e-08
6.184025e-08
5.796247e-08
5.252534e-08
1.721942e-05
1.707277e-05
1.617452e-05
1.578392e-05
1.460431e-05
1.012482e-05
4.493375e-06
1.566636e-05
1.396672e-05
1.654142e-06
1.658518e-06
1.668023e-06
1.688174e-06
1.718361e-06
6.822702e-07
1.638457e-06
1.759176e-06
1.803863e-06
6.903627e-07
6.992126e-07
1.657667e-06
1.685055e-06
6.462355e-07
1.484758e-06
1.50373e-06
1.531919e-06
6.549056e-09
7.043629e-09
5.878686e-09
1.024441e-09
8.880654e-10
1.256426e-09
1.156998e-09
0.0002887701
0.0002451107
0.0002420689
0.000229277
0.0002046444
0.0001889529
0.0001813229
0.0001757933
0.0001691238
0.0001701364
0.0001618251
0.0001578387
0.0001510671
0.0002027092
0.0001939989
0.0001921115
0.0001801256
0.0001585863
0.0001588513
0.0001474268
0.000144941
0.0001747169
0.0001579394
0.0001573892
0.0001422323
0.0001268152
0.0001197534
0.0001165176
0.0001098478
0.0001396991
0.0001125611
0.0001206899
9.478351e-05
0.000222668
0.0001577719
0.0001774864
0.0001437444
0.0001154285
9.17801e-05
0.0001327688
0.0001232559
0.0001321705
0.0001220534
9.284032e-05
8.661582e-05
9.144865e-05
8.631915e-05
0.000127085
0.0001324458
0.0001188238
0.0001147759
0.000103815
9.621538e-05
9.056653e-05
8.840221e-05
8.323432e-05
9.203711e-05
8.529391e-05
8.055208e-05
7.566136e-05
7.277753e-05
6.963154e-05
6.676452e-05
6.288428e-05
9.699964e-05
7.767721e-05
7.602783e-05
6.350758e-05
1.317913e-05
1.090665e-05
1.337081e-05
1.022875e-05
6.709955e-06
5.467144e-06
6.752413e-06
5.229093e-06
3.044925e-06
1.144062e-05
2.706297e-06
9.903796e-06
0.0001231529
0.0001077065
0.0001139917
9.951027e-05
9.047125e-05
6.055151e-05
7.920142e-05
5.303809e-05
7.423496e-05
5.835878e-05
7.090812e-05
5.507226e-05
8.364369e-05
9.419924e-05
8.282405e-05
8.958996e-05
7.914018e-05
6.901494e-05
4.668685e-05
6.128572e-05
4.28431e-05
5.896697e-05
4.70358e-05
5.831883e-05
4.637537e-05
8.712432e-05
6.055194e-05
7.261198e-05
5.141338e-05
4.146374e-05
2.644603e-05
3.566542e-05
2.199613e-05
4.070917e-05
3.104331e-05
3.905036e-05
2.887712e-05
1.735703e-05
1.118196e-05
1.626512e-05
8.832793e-06
2.113727e-05
1.627865e-05
1.991251e-05
1.548406e-05
3.251011e-05
2.026913e-05
2.875134e-05
1.795963e-05
3.300713e-05
2.528028e-05
3.274878e-05
2.423881e-05
1.525998e-05
9.485626e-06
1.331167e-05
5.58407e-06
1.742071e-05
1.348838e-05
1.713141e-05
1.059926e-05
3.922073e-05
2.581406e-05
3.366778e-05
2.28294e-05
7.302951e-05
6.497109e-05
6.971514e-05
6.377421e-05
3.978286e-05
3.651701e-05
4.89749e-05
3.993411e-05
4.907379e-05
3.99472e-05
5.724856e-05
5.295701e-05
5.368469e-05
4.863608e-05
3.401053e-05
3.016663e-05
4.196181e-05
3.495805e-05
3.932671e-05
3.293968e-05
6.0988e-05
4.4603e-05
5.139319e-05
3.864918e-05
2.73486e-05
1.656012e-05
2.506932e-05
1.540236e-05
2.855387e-05
2.100538e-05
2.885765e-05
2.102152e-05
1.245111e-05
9.286086e-06
9.337301e-06
5.074961e-06
1.598382e-05
7.983848e-06
1.556262e-05
7.744538e-06
2.420207e-05
1.531721e-05
2.168408e-05
1.412689e-05
2.562698e-05
1.949043e-05
2.418333e-05
1.866841e-05
9.490025e-06
4.742105e-06
8.314229e-06
4.62843e-06
1.498509e-05
7.282663e-06
1.361371e-05
6.566787e-06
3.063157e-05
1.999468e-05
2.771793e-05
1.777647e-05
6.730354e-05
6.25464e-05
6.039839e-05
5.965185e-05
4.285447e-05
3.289345e-05
2.719214e-05
5.308008e-05
3.879756e-05
5.094986e-05
3.806922e-05
3.073237e-05
2.559556e-05
2.983825e-05
2.486949e-05
5.744661e-06
6.052264e-06
4.169535e-06
3.966409e-06
1.770442e-06
1.812377e-06
1.831066e-06
1.848131e-06
7.849719e-07
1.728823e-05
1.503518e-05
1.371862e-05
1.303433e-05
1.051364e-05
8.231352e-06
9.856574e-06
7.539999e-06
6.363844e-06
6.63791e-06
3.9009e-06
3.894054e-06
6.879083e-06
5.606113e-06
3.938049e-06
4.004975e-06
5.735854e-06
4.359367e-06
5.07338e-06
3.704921e-06
2.118449e-06
6.97535e-06
2.077062e-06
5.814e-06
4.164403e-06
3.101618e-06
3.236651e-06
1.889707e-06
3.055912e-06
1.538564e-06
3.673663e-06
1.539649e-06
2.304683e-06
3.151479e-07
3.426858e-07
1.750599e-07
3.664094e-07
3.94288e-07
1.828732e-07
1.973536e-07
7.192431e-08
2.676736e-08
7.52373e-08
8.220688e-08
2.489901e-08
1.865146e-06
1.893613e-06
7.820528e-07
7.86268e-07
8.349662e-07
8.684565e-07
1.945354e-06
2.011007e-06
8.038131e-07
8.338049e-07
2.520937e-07
6.704814e-08
6.555401e-08
7.115998e-08
7.716473e-08
6.862768e-08
7.317827e-08
6.505558e-08
6.68064e-08
6.943445e-08
6.609943e-08
2.361451e-05
2.14876e-05
1.799271e-05
4.518879e-06
1.989018e-05
1.886181e-05
1.676203e-06
1.731806e-06
1.684373e-06
1.726938e-06
2.235206e-05
2.027559e-05
2.158666e-05
1.948517e-05
1.880979e-05
1.777362e-05
1.798773e-05
1.687209e-05
1.174898e-05
2.30082e-05
8.658919e-06
2.541715e-05
9.243763e-06
1.330418e-05
1.019572e-05
1.268331e-05
3.617997e-05
3.97427e-05
3.47693e-05
3.350266e-05
2.254258e-05
3.412015e-05
2.377932e-05
3.238671e-05
1.177518e-05
2.608437e-05
1.662338e-05
2.631357e-05
1.113104e-05
1.386524e-05
8.181098e-06
1.563511e-05
3.096964e-05
2.758404e-05
2.651637e-05
2.24379e-05
2.345403e-05
2.934171e-05
2.276119e-05
2.629761e-05
1.251483e-05
1.84012e-05
1.160394e-05
1.791972e-05
3.395234e-05
2.648329e-05
2.722941e-05
2.213794e-05
3.966578e-05
3.958756e-05
3.530708e-05
3.47727e-05
2.201924e-05
2.095018e-05
2.030768e-05
2.100454e-05
3.713363e-05
3.459344e-05
3.343738e-05
3.248271e-05
2.250539e-05
1.994948e-05
1.937398e-05
1.887481e-05
3.134019e-05
3.146575e-05
2.757691e-05
2.821869e-05
2.008989e-05
2.210863e-05
2.019446e-05
2.203675e-05
3.155181e-05
3.136869e-05
2.808617e-05
2.783547e-05
2.80643e-05
3.425161e-05
2.298124e-05
2.540144e-05
1.837465e-05
2.243667e-05
1.471159e-05
1.70964e-05
8.945555e-06
1.52934e-05
7.990166e-06
1.198735e-05
2.078329e-05
1.836781e-05
1.642759e-05
1.598775e-05
1.986381e-05
2.245889e-05
1.554823e-05
1.817388e-05
1.21499e-05
1.363566e-05
9.613904e-06
1.042773e-05
7.455943e-06
9.730573e-06
7.144492e-06
8.393678e-06
1.375191e-05
1.366037e-05
1.112301e-05
1.090015e-05
1.249611e-05
1.410429e-05
9.823569e-06
1.09625e-05
1.226803e-05
1.807719e-05
1.108195e-05
9.081288e-06
1.758598e-05
1.816135e-05
1.590412e-05
1.62692e-05
2.392892e-05
2.426079e-05
1.941136e-05
2.009327e-05
1.926223e-05
2.020183e-05
1.675506e-05
2.363331e-05
2.295936e-05
1.977299e-05
1.957692e-05
1.339018e-05
1.327359e-05
1.044171e-05
1.478409e-05
1.532304e-05
1.175321e-05
1.277078e-05
1.555506e-05
1.588983e-05
1.327152e-05
1.338164e-05
1.763166e-05
1.71091e-05
9.541217e-06
1.147644e-05
2.214046e-05
2.442419e-05
2.33143e-05
2.608257e-05
3.315283e-05
3.2833e-05
3.226596e-05
3.245754e-05
2.723014e-05
2.990669e-05
2.853018e-05
3.03137e-05
3.329481e-05
3.412576e-05
3.283932e-05
3.329849e-05
2.465777e-05
2.676175e-05
2.357881e-05
2.450393e-05
3.100568e-05
3.075389e-05
2.723746e-05
2.68318e-05
2.811303e-05
2.88395e-05
2.495289e-05
2.502181e-05
3.03092e-05
2.99708e-05
2.617836e-05
2.553934e-05
3.712767e-05
3.702248e-05
2.55444e-05
2.413995e-05
3.215586e-05
3.153741e-05
3.211451e-05
3.504488e-05
3.360711e-05
3.365954e-05
2.90469e-05
2.891964e-05
2.477858e-05
2.421985e-05
2.932957e-05
2.866444e-05
2.466015e-05
2.370873e-05
2.850203e-05
2.778505e-05
2.358582e-05
2.272839e-05
2.767043e-05
2.666462e-05
2.259603e-05
2.146205e-05
3.529221e-05
2.180192e-05
1.911873e-05
2.071418e-05
2.086627e-05
2.201026e-05
2.139189e-05
1.881836e-05
1.820102e-05
2.077714e-05
2.04801e-05
1.74163e-05
1.700437e-05
2.061064e-05
1.999845e-05
1.741593e-05
1.674298e-05
1.575632e-05
1.559978e-05
1.304378e-05
1.252094e-05
1.337086e-05
8.860895e-06
1.514379e-05
1.467552e-05
1.180197e-05
1.114219e-05
1.629663e-05
1.49521e-05
1.337194e-05
1.226577e-05
2.003853e-05
1.949613e-05
1.653042e-05
1.599399e-05
1.918405e-05
1.844348e-05
1.60026e-05
1.528762e-05
1.891976e-05
1.828629e-05
1.542993e-05
1.482107e-05
1.752903e-05
1.667777e-05
1.452105e-05
1.376387e-05
1.400754e-05
1.336011e-05
1.04216e-05
9.770254e-06
1.260436e-05
1.191358e-05
9.105491e-06
8.519089e-06
1.317319e-05
1.130027e-05
1.054678e-05
8.9494e-06
9.708391e-06
8.582693e-06
6.864541e-06
5.785818e-06
6.274873e-06
3.812889e-06
3.959244e-06
2.591503e-06
4.525689e-06
3.729669e-06
2.385675e-06
1.789628e-06
2.51368e-06
1.704629e-06
1.207769e-06
9.207879e-07
3.010496e-06
3.318175e-06
2.195215e-06
2.522178e-06
4.415809e-06
5.619256e-06
3.401321e-06
4.209325e-06
1.492297e-06
1.741375e-06
9.010059e-07
1.092495e-06
2.236997e-06
2.748766e-06
1.424599e-06
1.674089e-06
2.552267e-06
3.30491e-06
2.354162e-06
2.997067e-06
2.842671e-06
1.490926e-06
2.45022e-06
1.350993e-06
7.2094e-06
9.066471e-06
2.025423e-06
2.614975e-06
1.768995e-06
2.303709e-06
7.139466e-06
9.028077e-06
7.134193e-06
1.528613e-06
2.014464e-06
1.318244e-06
1.953608e-06
1.291518e-06
1.001506e-06
6.648431e-07
1.122511e-06
8.352997e-07
3.718135e-07
2.432274e-07
5.596583e-07
1.783928e-07
6.149477e-07
4.875724e-07
1.752286e-07
1.407259e-07
5.187421e-07
3.506042e-07
4.259151e-07
2.038967e-07
2.391992e-09
2.039697e-08
7.577159e-10
3.786845e-09
7.238841e-09
5.393361e-09
2.797496e-09
3.875619e-08
2.593107e-08
2.351608e-08
1.930423e-08
9.170698e-08
1.718753e-07
4.789744e-07
5.724904e-07
1.637846e-07
2.169919e-07
2.983557e-07
1.00831e-07
6.882858e-07
7.475291e-07
2.572636e-07
2.60479e-07
8.5134e-09
1.312156e-08
1.82419e-08
3.028691e-06
3.140265e-06
1.808941e-06
1.751715e-06
7.346507e-07
6.726091e-07
2.357905e-07
2.014488e-07
5.937686e-07
5.21399e-07
4.493181e-07
5.827609e-06
6.87497e-06
2.564417e-06
3.192233e-06
4.726862e-06
4.918659e-06
3.179027e-06
2.702248e-06
7.485148e-06
7.292496e-06
3.499961e-06
3.427592e-06
4.801439e-06
4.865051e-06
2.43988e-06
2.665942e-06
8.770811e-07
9.295641e-07
3.325436e-07
3.572089e-07
1.069842e-06
1.036997e-06
6.505675e-07