/*--------------------------------*- C++ -*----------------------------------*\
| =========                 |                                                 |
| \\      /  F ield         | OpenFOAM: The Open Source CFD Toolbox           |
|  \\    /   O peration     | Version:  2206                                  |
|   \\  /    A nd           | Website:  www.openfoam.com                      |
|    \\/     M anipulation  |                                                 |
\*---------------------------------------------------------------------------*/
FoamFile
{
    version     2.0;
    format      ascii;
    arch        "LSB;label=32;scalar=64";
    class       surfaceScalarField;
    location    "0/fluid_0";
    object      phi;
}
// * * * * * * * * * * * * * * * * * * * * * * * * * * * * * * * * * * * * * //

dimensions      [1 0 -1 0 0 0 0];

oriented        oriented;

internalField   nonuniform List<scalar> 
271450
(
-3.389871e-09
3.287534e-07
1.352033e-08
2.320634e-09
-1.643031e-08
-3.247742e-07
-4.784849e-09
3.295405e-07
1.371988e-08
-3.252209e-07
-1.664451e-08
3.305789e-07
1.368666e-08
-6.467114e-09
-1.663689e-08
-3.259464e-07
-2.534863e-09
1.659468e-09
1.507893e-08
-3.283669e-07
3.322877e-07
-1.812438e-08
3.329611e-07
-3.675281e-09
1.520013e-08
-1.826734e-08
3.370436e-07
-3.98076e-09
1.618229e-08
2.720255e-09
-1.900428e-08
3.409977e-07
-3.865917e-09
1.682857e-08
-1.964147e-08
2.724734e-09
-3.71594e-09
3.444046e-07
1.68698e-08
2.648379e-09
-1.920919e-08
3.338694e-07
-5.336543e-09
1.544248e-08
-1.811015e-08
-5.615386e-09
3.383884e-07
1.610991e-08
-1.899426e-08
3.353183e-07
1.552994e-08
-7.198773e-09
-1.840714e-08
3.401406e-07
1.625188e-08
-7.594403e-09
-1.909513e-08
3.425332e-07
-5.535498e-09
1.697011e-08
-1.944536e-08
-5.316767e-09
3.463237e-07
1.704504e-08
-1.923468e-08
3.444741e-07
1.713873e-08
-7.525936e-09
-1.94818e-08
3.485998e-07
1.732764e-08
-7.21743e-09
-1.955271e-08
6.793742e-08
-7.489356e-09
-1.131583e-08
1.093451e-08
7.885668e-09
-6.795241e-08
-9.390628e-09
-5.477941e-09
9.952245e-08
8.364021e-09
-9.992247e-08
6.904565e-09
-8.707122e-09
-1.265334e-08
6.676945e-08
1.31378e-08
-4.805981e-09
1.331969e-07
4.900396e-09
-1.346616e-07
4.268424e-09
-2.898061e-09
1.098612e-07
-5.738786e-09
-1.11914e-07
-4.503808e-09
-5.726443e-09
1.318744e-07
4.997203e-09
-3.426204e-09
-6.906704e-09
1.075548e-07
-5.220455e-09
-1.395423e-08
2.688514e-08
-1.021567e-08
1.316642e-08
-2.719749e-08
3.813759e-10
-1.087449e-08
-1.464608e-08
1.191982e-08
-7.348553e-10
-1.449206e-08
-1.142968e-08
2.623114e-08
1.392239e-08
-1.185935e-08
3.849636e-10
-1.515789e-08
1.252161e-08
-8.06541e-09
6.063279e-08
-6.226088e-08
-6.260944e-09
1.324214e-08
-1.063843e-08
-1.377126e-08
-7.772361e-09
-8.741817e-09
5.871179e-08
-7.67357e-09
1.281436e-08
-1.086806e-08
-9.305318e-09
-1.125183e-08
9.877949e-08
-6.343657e-09
1.000561e-08
8.332841e-09
-1.241012e-09
3.482594e-07
1.64196e-08
-1.807047e-08
-3.459832e-07
6.157243e-10
3.473228e-07
-3.17709e-09
1.692298e-08
2.015732e-09
-1.867983e-08
3.498129e-07
-2.36273e-09
1.673746e-08
-1.810577e-08
6.536015e-08
-9.664339e-09
-1.344285e-08
1.326466e-08
3.498656e-07
-3.705784e-10
1.602774e-08
-1.717366e-08
-8.969412e-11
7.318222e-10
1.534036e-08
3.507533e-07
-9.0545e-10
-1.605446e-08
-1.246585e-08
9.791035e-08
1.085366e-08
9.788416e-09
-7.307086e-09
3.51655e-07
-1.399166e-09
1.659998e-08
-1.741353e-08
-2.975206e-11
1.599598e-08
3.52886e-07
-1.646539e-08
3.495099e-07
-4.757092e-09
1.735066e-08
-1.89569e-08
-3.919385e-09
3.523262e-07
1.725677e-08
-1.851643e-08
3.521435e-07
1.767132e-08
-6.561516e-09
-1.941063e-08
3.55351e-07
1.768715e-08
-5.629553e-09
-1.918449e-08
3.546631e-07
-2.808246e-09
1.738529e-08
-1.831309e-08
-1.363007e-09
1.720934e-08
3.563491e-07
-1.756209e-08
3.581312e-07
1.792452e-08
-4.344019e-09
-1.916887e-08
1.776858e-08
-3.046322e-09
3.601527e-07
-1.810685e-08
1.131855e-08
-2.283027e-09
1.458593e-09
3.254759e-07
-3.224108e-07
-1.355926e-08
3.210353e-07
7.248632e-09
1.105695e-09
-8.868463e-09
-1.738799e-09
-3.187824e-07
-2.134136e-09
9.534806e-09
1.378825e-09
3.235744e-07
1.138944e-08
-3.384123e-09
3.259508e-07
-3.227188e-07
9.596947e-09
-3.055619e-09
3.240033e-07
-3.212894e-07
3.201355e-07
1.107665e-09
-1.7275e-09
6.054598e-09
-3.183216e-07
8.15473e-09
-2.142561e-09
3.222678e-07
1.39027e-09
-2.016778e-09
3.213671e-07
7.056906e-09
-3.19582e-07
1.329483e-09
8.225791e-09
-3.079691e-09
3.227168e-07
-3.204085e-07
-2.885889e-09
3.217695e-07
7.128212e-09
-3.198028e-07
1.167766e-08
-4.682965e-09
3.264649e-07
-3.231238e-07
-4.485921e-09
9.64372e-09
3.252015e-07
-3.217373e-07
1.175078e-08
3.270235e-07
-6.14431e-09
-3.236263e-07
9.733917e-09
3.257877e-07
-5.939875e-09
-3.223169e-07
8.366788e-09
-4.36565e-09
3.233197e-07
-3.207568e-07
-4.208614e-09
3.22766e-07
7.179635e-09
-3.202562e-07
8.488164e-09
3.238461e-07
-5.744288e-09
-3.212217e-07
3.233393e-07
7.324241e-09
-5.577925e-09
-3.208061e-07
3.29204e-07
1.316909e-08
-3.79152e-09
2.569336e-09
1.434841e-08
3.322562e-07
-3.875184e-09
2.656798e-09
3.268772e-07
1.146954e-08
-3.622708e-09
2.448419e-09
3.295718e-07
1.286012e-08
-3.722803e-09
2.516485e-09
3.350636e-07
1.513662e-08
-3.635657e-09
2.52028e-09
1.548717e-08
-3.386166e-09
3.376684e-07
2.163936e-09
3.319521e-07
1.388604e-08
-3.340038e-09
2.210349e-09
1.451762e-08
-3.04745e-09
3.340875e-07
1.881506e-09
-2.291081e-09
8.814518e-09
1.453271e-09
-9.971888e-09
3.233623e-07
3.252477e-07
1.002879e-08
-3.51367e-09
2.423468e-09
1.152093e-08
3.277102e-07
-3.525533e-09
2.402249e-09
3.239831e-07
-3.374323e-09
8.89848e-09
3.261695e-07
-3.406866e-09
1.044398e-08
2.29743e-09
3.29857e-07
1.27373e-08
-2.954857e-09
1.956761e-09
1.361706e-08
-2.513855e-09
3.318199e-07
1.45155e-09
3.280735e-07
-2.769932e-09
1.180824e-08
1.794926e-09
-2.245554e-09
1.292504e-08
3.298666e-07
1.144526e-09
1.331291e-06
4.975279e-08
-2.824412e-08
5.865376e-08
1.354049e-06
-2.633991e-08
1.315387e-06
3.983973e-08
-2.602329e-08
5.128907e-08
1.334659e-06
-2.239101e-08
6.186654e-09
-1.942729e-09
3.20768e-07
1.25437e-09
-3.192094e-07
-1.822716e-09
5.433555e-09
3.203392e-07
1.18765e-09
-3.18951e-07
6.249878e-09
-2.822649e-09
3.212032e-07
-3.19445e-07
5.506034e-09
-2.636551e-09
3.20757e-07
-3.191994e-07
4.752067e-09
-1.713283e-09
1.105435e-09
3.200463e-07
-3.187569e-07
-1.56244e-09
4.133387e-09
3.198306e-07
-3.186476e-07
9.98128e-10
4.830511e-09
-2.504176e-09
3.205019e-07
-3.190355e-07
-2.33146e-09
3.202911e-07
4.208452e-09
-3.189001e-07
6.366754e-09
-4.042949e-09
3.219236e-07
-3.198905e-07
-3.862597e-09
5.615332e-09
3.216923e-07
-3.197149e-07
6.504773e-09
3.224666e-07
-5.361423e-09
-3.203287e-07
5.745076e-09
3.222737e-07
-5.183046e-09
-3.201935e-07
4.96654e-09
-3.713857e-09
3.213581e-07
-3.194996e-07
-3.558165e-09
3.212651e-07
4.346844e-09
-3.194187e-07
5.123382e-09
3.2197e-07
-4.999185e-09
-3.20063e-07
3.219062e-07
-4.83862e-09
4.485297e-09
-3.199877e-07
3.225107e-07
-2.186508e-09
7.859206e-09
1.399159e-09
-2.113556e-09
3.242511e-07
1.32053e-09
-1.033879e-08
9.391414e-09
3.23158e-07
7.922186e-09
-3.165011e-09
9.48578e-09
3.251236e-07
-3.120951e-09
3.225226e-07
7.126588e-09
-3.023589e-09
2.053662e-09
3.243026e-07
8.714319e-09
-2.964743e-09
1.956162e-09
3.257345e-07
-1.527863e-09
1.076065e-08
8.984589e-10
-1.161465e-08
-8.28819e-10
3.268418e-07
3.372875e-10
-1.261054e-08
1.199469e-08
3.268144e-07
1.094781e-08
-2.358245e-09
1.226442e-08
-1.760852e-09
3.284071e-07
3.258081e-07
1.027355e-08
-2.160108e-09
1.328887e-09
1.177601e-08
-1.551718e-09
3.272412e-07
6.070028e-10
3.221486e-07
6.381139e-09
-2.763363e-09
1.862168e-09
7.982469e-09
3.238065e-07
-2.675986e-09
1.74992e-09
3.218809e-07
-2.635969e-09
5.709455e-09
1.717887e-09
3.235116e-07
-2.537732e-09
7.321348e-09
1.568172e-09
3.25204e-07
9.631666e-09
-1.802239e-09
1.046651e-09
1.127513e-08
-1.17713e-09
3.265465e-07
3.354925e-10
3.248768e-07
-1.655872e-09
9.040379e-09
8.819732e-10
-1.007359e-09
3.261961e-07
1.081093e-08
1.522637e-10
1.306979e-06
3.280115e-08
-2.385817e-08
4.573516e-08
1.323953e-06
-1.925102e-08
1.303873e-06
-2.202346e-08
2.683769e-08
1.320315e-06
-1.698304e-08
4.063354e-08
1.542291e-08
-8.629786e-10
3.394204e-07
3.870934e-10
-3.379478e-07
-3.545071e-10
3.348971e-07
1.485383e-08
-7.937726e-11
-3.338941e-07
3.397156e-07
1.577016e-08
-2.434231e-09
1.539916e-09
1.582609e-08
3.415746e-07
-1.810668e-09
3.356483e-07
1.50805e-08
-2.000118e-09
1.129009e-09
3.370328e-07
1.542173e-08
-1.334627e-09
3.404034e-07
1.530819e-08
3.527411e-10
-6.161791e-10
1.478745e-08
1.587443e-09
3.408683e-07
-1.499492e-09
3.352749e-07
9.380769e-10
1.494262e-08
-9.503304e-10
2.316607e-09
1.470144e-08
3.352103e-07
-2.165997e-09
3.426959e-07
1.590045e-08
-6.903844e-11
1.555675e-08
1.019769e-09
3.437028e-07
3.376238e-07
1.576445e-08
4.830312e-10
1.572253e-08
1.635855e-09
3.381388e-07
3.313224e-07
1.39575e-08
-5.700287e-10
-1.46072e-08
1.289731e-10
-3.302316e-07
1.446228e-08
2.417252e-10
3.319303e-07
-4.580685e-10
3.291374e-07
-2.081891e-10
1.347286e-08
-3.2834e-07
-1.046275e-10
6.414309e-10
3.294671e-07
1.422588e-08
-7.347367e-10
3.331472e-07
1.440632e-08
-1.223136e-09
1.50087e-08
3.342774e-07
-4.754792e-10
3.309822e-07
-8.808137e-10
1.396327e-08
3.319052e-07
-1.025955e-10
1.482976e-08
3.319164e-07
1.47898e-08
1.644546e-09
-1.477829e-09
1.46946e-08
3.100689e-09
3.313788e-07
-2.55623e-09
3.290946e-07
2.113915e-09
1.47601e-08
-1.711704e-09
3.765688e-09
3.281739e-07
1.489374e-08
-3.044105e-09
3.345593e-07
1.554497e-08
1.582114e-09
1.571148e-08
2.87597e-09
3.347951e-07
3.318808e-07
2.060987e-09
1.562231e-08
3.485369e-09
3.318105e-07
1.606214e-08
1.371398e-06
6.469568e-08
-1.965833e-08
6.923317e-08
1.383419e-06
-7.896199e-09
1.348897e-06
6.108754e-08
-1.33123e-08
1.357275e-06
6.989211e-08
9.670786e-10
3.407197e-07
1.402415e-08
3.554165e-09
-1.442344e-08
-3.006282e-09
1.264106e-08
5.578113e-09
3.4007e-07
-1.302663e-08
-4.542851e-09
3.343597e-07
4.466904e-09
1.401214e-08
-3.604328e-09
6.707063e-09
3.329999e-07
1.272825e-08
-5.434402e-09
3.438109e-07
1.518452e-08
3.779717e-09
-1.551818e-08
1.41649e-08
3.440388e-07
5.518456e-09
-1.433307e-08
3.376474e-07
1.55504e-08
4.592485e-09
3.373117e-07
1.474287e-08
6.464707e-09
3.387427e-07
1.068914e-08
8.555971e-09
-6.750039e-09
-1.116772e-08
7.841317e-09
1.164353e-08
3.36999e-07
-8.525973e-09
-9.215186e-09
3.309396e-07
1.023779e-08
1.079578e-08
-8.28413e-09
1.389177e-08
7.780172e-09
3.283882e-07
-1.127921e-08
3.432017e-07
1.302403e-08
9.651872e-09
-1.32829e-08
1.092446e-08
1.228191e-08
3.427892e-07
-1.115026e-08
3.357774e-07
1.37616e-08
1.103453e-08
1.180006e-08
1.401902e-08
3.347746e-07
3.301162e-07
1.417297e-08
5.674568e-09
-4.57286e-09
1.291157e-08
8.364406e-09
3.281471e-07
-6.578616e-09
3.263294e-07
6.661308e-09
1.457896e-08
-5.222768e-09
1.000409e-08
3.236915e-07
1.362192e-08
-8.076575e-09
3.339427e-07
1.567633e-08
6.401038e-09
1.503052e-08
3.333209e-07
8.698549e-09
3.304681e-07
7.325483e-09
1.635456e-08
3.293951e-07
1.00043e-08
1.61033e-08
3.251651e-07
1.100047e-08
1.26605e-08
-9.883187e-09
7.94815e-09
1.749373e-08
3.216151e-07
-1.411169e-08
3.196032e-07
1.518405e-08
1.183814e-08
-1.193338e-08
2.124599e-08
8.973307e-09
3.148715e-07
-1.753947e-08
3.311663e-07
1.412053e-08
1.445613e-08
1.235512e-08
1.836244e-08
3.297426e-07
3.265467e-07
1.647175e-08
1.568121e-08
2.11353e-08
1.449349e-08
3.24519e-07
1.39052e-06
7.196383e-08
9.886388e-09
-1.69795e-08
-1.663099e-08
-1.757187e-08
-1.741396e-08
7.278277e-08
1.39444e-06
3.522009e-08
-1.599147e-08
-1.526851e-08
-1.70148e-08
-1.666103e-08
1.360836e-06
7.785494e-08
2.297757e-08
8.622552e-08
1.361946e-06
5.587324e-08
3.273794e-07
1.308691e-08
1.766373e-10
-3.281898e-10
1.402796e-08
1.094632e-09
3.274452e-07
-9.625426e-10
3.258952e-07
4.133461e-10
1.279265e-08
-3.255532e-07
-4.610457e-10
1.430056e-09
3.257438e-07
1.394169e-08
-1.19248e-09
3.293033e-07
1.349721e-08
-2.53559e-10
1.458283e-08
3.300381e-07
6.06851e-10
3.279472e-07
1.321153e-08
-7.01201e-12
3.285079e-07
1.453014e-08
9.220515e-10
3.267781e-07
1.476935e-08
2.811075e-09
-2.153204e-09
1.518257e-08
4.856348e-09
3.254745e-07
-3.841652e-09
3.247912e-07
3.400429e-09
1.495714e-08
-2.6356e-09
5.788018e-09
1.573614e-08
3.230623e-07
-4.612675e-09
3.297627e-07
1.556959e-08
3.139135e-09
1.630209e-08
4.875046e-09
3.295041e-07
3.279927e-07
1.582648e-08
3.658807e-09
1.696274e-08
5.628683e-09
3.274914e-07
3.248807e-07
7.474831e-10
-6.624435e-10
1.252321e-08
-3.246963e-07
1.390588e-08
1.935194e-09
3.245479e-07
-1.566539e-09
2.358374e-09
3.23812e-07
-3.242693e-07
1.39192e-08
-1.914375e-09
3.271427e-07
1.286546e-08
4.973602e-10
1.441514e-08
3.276326e-07
1.560237e-09
3.26764e-07
7.309097e-10
1.25905e-08
-1.023926e-09
3.272317e-07
1.898334e-09
1.440753e-08
3.233152e-07
1.521734e-08
4.247859e-09
-3.275426e-09
1.644386e-08
7.128067e-09
3.212171e-07
-5.737627e-09
3.223808e-07
4.956119e-09
1.560403e-08
-3.911655e-09
8.216991e-09
3.199969e-07
1.734328e-08
-6.732451e-09
3.269658e-07
1.598432e-08
4.756878e-09
1.75586e-08
7.089803e-09
3.264082e-07
3.265061e-07
5.307994e-09
1.635799e-08
7.893263e-09
3.25924e-07
1.846449e-08
1.336585e-06
5.86799e-08
-8.956402e-09
7.207157e-08
1.343821e-06
7.88604e-09
1.333236e-06
-5.792491e-09
5.623852e-08
1.342291e-06
1.336733e-08
7.469678e-08
3.230631e-07
1.516608e-08
8.437698e-09
-6.613381e-09
1.450959e-08
1.253793e-08
3.19651e-07
-1.001354e-08
3.200389e-07
9.957087e-09
1.617792e-08
-7.945514e-09
1.499862e-08
3.159443e-07
1.616891e-08
-1.256336e-08
3.278121e-07
1.689297e-08
9.591272e-09
1.706993e-08
3.264902e-07
1.289317e-08
3.254272e-07
1.811089e-08
1.080334e-08
3.238239e-07
1.901718e-08
1.465472e-08
3.146403e-07
1.312829e-08
1.920601e-08
-1.548545e-08
1.071974e-08
2.705417e-08
3.084908e-07
-2.265109e-08
3.098972e-07
2.298693e-08
1.531039e-08
-1.912191e-08
3.289567e-08
1.377368e-08
3.029152e-07
-2.896756e-08
3.231445e-07
1.709649e-08
2.113643e-08
1.667621e-08
2.707332e-08
3.209426e-07
3.20133e-07
1.997766e-08
2.379661e-08
2.084763e-08
3.087069e-08
3.179866e-07
3.176178e-07
1.743052e-08
1.212587e-08
-9.779217e-09
1.822843e-08
1.816114e-08
3.126715e-07
-1.527432e-08
3.160855e-07
1.398362e-08
1.902307e-08
-1.166486e-08
2.105191e-08
3.108509e-07
2.071822e-08
-1.830704e-08
3.241322e-07
1.921932e-08
1.329337e-08
2.095664e-08
3.224881e-07
1.786585e-08
3.236991e-07
1.45689e-08
2.085888e-08
3.223702e-07
1.976061e-08
2.357685e-08
3.054949e-07
1.853802e-08
2.827619e-08
-2.432726e-08
1.811064e-08
4.104455e-08
2.971277e-07
-3.701423e-08
3.036042e-07
3.284142e-08
2.220356e-08
-2.926024e-08
4.820315e-08
2.966456e-07
2.328106e-08
-4.641502e-08
3.186503e-07
2.299067e-08
2.910096e-08
2.562473e-08
3.783374e-08
3.17084e-07
3.194611e-07
3.180426e-08
2.693697e-08
4.188805e-08
3.201318e-07
3.126912e-08
1.347216e-06
8.750019e-08
3.490209e-08
1.075475e-07
1.352316e-06
7.645591e-08
1.350946e-06
4.484243e-08
9.949173e-08
1.37199e-06
9.354192e-08
1.335891e-07
-1.462188e-08
6.446245e-08
1.356588e-08
-1.051214e-08
-6.839311e-09
5.883404e-09
1.30384e-07
-3.897389e-09
-7.914628e-09
-5.74667e-09
1.047125e-07
-1.43817e-08
2.559632e-08
-1.232813e-08
1.39018e-08
6.875678e-10
-1.207915e-08
-1.542674e-08
1.282158e-08
-1.538566e-08
2.48738e-08
1.360562e-08
-1.211932e-08
-1.673364e-08
1.443147e-09
1.235935e-08
-1.176695e-08
-9.234088e-09
5.550255e-08
-7.799433e-09
-1.124748e-08
1.177552e-08
-9.026916e-09
-1.491351e-08
-5.994185e-09
-8.821626e-09
5.941118e-09
9.142116e-09
-5.052249e-09
-6.350091e-09
-1.510432e-08
4.882752e-09
6.710403e-09
-1.587482e-08
-8.958826e-09
-5.610223e-09
9.291788e-09
-6.419336e-09
-1.650161e-08
-4.777402e-09
6.77128e-09
-1.220364e-08
-4.689364e-09
-1.905322e-09
-1.718161e-09
-1.893377e-09
-1.695304e-09
4.645119e-09
-5.74038e-09
-1.334074e-08
-1.372273e-09
-1.209052e-09
-1.366816e-09
-1.197401e-09
5.672924e-09
-1.292593e-08
-4.347852e-09
-7.242471e-09
-1.459228e-08
-5.371693e-09
-5.121675e-09
-1.518951e-08
-3.781554e-09
-4.577583e-09
3.395236e-09
5.049089e-09
-2.781689e-09
-3.435563e-09
3.867417e-09
-1.523059e-08
2.39091e-09
-1.694422e-08
-4.570038e-09
-3.834308e-09
5.065408e-09
-3.369943e-09
-2.917356e-09
3.809814e-09
-1.724843e-08
-1.403869e-08
-4.313203e-09
3.988458e-09
-3.554881e-09
-3.146948e-09
-1.442513e-08
2.720864e-09
-2.623041e-09
-1.569226e-08
-4.23887e-09
-3.54439e-09
-3.238726e-09
-1.640656e-08
-2.56387e-09
-1.645315e-08
-4.717552e-09
-8.738681e-09
8.872423e-09
-4.282623e-09
-6.467278e-09
-1.754294e-08
7.062286e-09
-1.740703e-08
-4.029648e-09
8.769797e-09
-8.784316e-09
-1.841543e-08
-3.8168e-09
7.020199e-09
-6.477618e-09
-1.37254e-08
-3.736137e-09
-6.872478e-09
-1.560684e-08
-5.178038e-09
-4.779489e-09
-1.811816e-08
-3.558112e-09
-4.539976e-09
4.838997e-09
-2.928246e-09
-3.364911e-09
3.941068e-09
-1.868342e-08
-1.903057e-08
4.822121e-09
-3.200395e-09
-4.5647e-09
3.943809e-09
-1.961814e-08
-2.905397e-09
-3.379094e-09
-1.687618e-08
-3.57502e-09
-3.934486e-09
-3.147821e-09
-1.778834e-08
-2.543657e-09
-2.364839e-09
2.530826e-10
-2.298043e-10
-1.680014e-09
2.116252e-09
-1.282179e-09
-2.621301e-09
1.281312e-09
-1.460831e-09
-2.274651e-09
1.207145e-10
2.067217e-09
-1.553574e-09
-2.715789e-09
-1.05802e-09
-1.478326e-09
-2.809371e-09
-1.556391e-09
1.546719e-09
-1.174532e-09
-1.470933e-09
1.43591e-09
-3.006098e-09
-9.773014e-10
-2.926093e-09
-1.530403e-09
-1.182499e-09
-9.719003e-10
-1.511521e-09
-3.111005e-09
-1.345154e-08
9.725343e-08
1.146963e-08
1.112614e-08
-8.487311e-09
8.716779e-08
1.063516e-09
2.140753e-09
-8.746702e-08
-1.311046e-09
-1.593995e-09
5.514883e-10
2.369315e-09
8.691844e-08
-7.989781e-10
-1.872475e-09
8.559246e-08
2.358573e-09
-8.588077e-08
-1.818426e-09
8.116787e-10
2.548899e-09
8.521868e-08
4.227431e-10
-2.046369e-09
6.421018e-08
-1.503754e-08
1.348528e-08
-1.164701e-08
-1.299818e-08
1.284937e-08
1.288766e-08
-1.036189e-08
9.487647e-08
-1.800099e-08
1.384594e-08
6.974138e-08
-1.437432e-08
-1.564263e-08
2.500847e-08
1.385389e-08
-1.338346e-08
2.985419e-09
-1.718965e-08
1.223146e-08
-1.222672e-08
-1.625269e-08
1.54159e-08
2.303994e-08
-1.519567e-08
-1.895118e-08
1.159397e-08
6.410596e-09
-1.232066e-08
-1.788141e-08
-3.269394e-09
8.817743e-09
-8.886242e-09
-3.525218e-09
6.968968e-09
-1.87062e-08
-6.435757e-09
-1.893082e-08
8.692342e-09
-3.340223e-09
-8.641871e-09
6.740588e-09
-1.91897e-08
-3.952752e-09
-6.054178e-09
1.205074e-08
5.167083e-09
-3.486086e-07
-6.020807e-09
3.468292e-07
3.516788e-07
1.284339e-08
9.161481e-09
-3.527695e-07
-8.863394e-09
3.50536e-07
1.728427e-08
5.644903e-09
-1.597324e-08
-5.813148e-09
3.490152e-07
2.23548e-08
2.370159e-09
-2.078854e-08
-2.415631e-09
2.846406e-08
-2.772496e-09
-2.634961e-08
1.91457e-09
3.477587e-07
3.584081e-07
1.144105e-08
1.398917e-08
-3.585001e-07
-1.249481e-08
1.551117e-08
3.581181e-07
1.282444e-08
-1.076134e-08
3.64532e-07
1.578214e-08
9.615995e-09
-3.639877e-07
-1.450134e-08
3.648803e-07
1.520624e-08
1.336174e-08
-1.340514e-08
3.578668e-07
2.030965e-08
1.095392e-08
-8.657506e-09
2.564265e-08
3.575916e-07
9.351762e-09
-6.255121e-09
3.652488e-07
1.394348e-08
1.78898e-08
-1.189215e-08
3.658183e-07
1.348004e-08
2.271305e-08
-1.111993e-08
3.18727e-08
7.44483e-09
-3.524445e-08
3.577396e-07
-4.221031e-09
3.664356e-07
1.229963e-08
2.833804e-08
-9.382245e-09
1.138368e-08
3.416772e-08
-3.860264e-08
3.672255e-07
-7.738657e-09
3.346484e-07
4.098069e-09
1.615274e-08
-1.273312e-08
-9.547802e-10
2.10208e-08
3.32129e-07
-6.544309e-10
-1.689221e-08
3.249378e-07
1.939504e-08
3.685498e-09
-1.553211e-08
2.529592e-08
3.211477e-07
-1.810177e-09
-2.065044e-08
3.411048e-07
8.620055e-09
1.837849e-08
5.072026e-09
3.403619e-07
2.23366e-08
3.322943e-07
9.57927e-09
2.09161e-08
3.308829e-07
6.193525e-09
2.558582e-08
3.29003e-07
-7.442329e-09
2.758358e-08
4.823122e-09
-2.183837e-08
-1.540717e-08
3.458967e-08
3.25953e-07
1.180605e-08
-2.793851e-08
3.166653e-07
3.401016e-08
-9.165546e-09
-2.780452e-08
4.346237e-08
3.11703e-07
-1.774625e-08
-3.6161e-08
3.38141e-07
1.221394e-09
3.095325e-08
-4.065077e-09
3.655554e-08
3.374677e-07
3.277851e-07
2.609799e-09
3.571952e-08
-2.216593e-09
4.287267e-08
3.265264e-07
3.62261e-09
2.498843e-08
3.168388e-07
-2.014928e-08
4.222703e-08
1.181542e-08
-3.654767e-08
-1.070972e-07
1.027892e-07
-1.318674e-08
3.07498e-08
4.693904e-09
3.087052e-07
-2.565479e-08
1.804142e-08
4.707607e-08
-1.039997e-07
9.933743e-08
-1.822816e-08
3.264613e-07
1.022635e-08
2.762262e-08
7.174847e-09
3.247404e-07
3.39515e-08
-3.321191e-08
3.205271e-07
3.174324e-08
1.322477e-08
3.183363e-07
3.957136e-08
1.117658e-08
-4.138227e-08
2.094316e-07
-9.59127e-09
-4.674107e-07
1.11874e-08
-1.138264e-08
-9.161968e-09
4.3671e-07
-1.47967e-07
-2.02981e-10
9.032747e-10
3.279225e-08
-3.312762e-08
-6.949937e-10
3.300685e-10
3.163282e-08
-1.090668e-07
7.088969e-09
1.056921e-07
-7.672484e-09
-2.767457e-08
2.247437e-08
-4.962719e-08
1.074068e-07
3.063895e-07
-2.829866e-07
-1.036568e-07
3.208777e-07
3.951137e-09
4.792552e-08
-4.540418e-08
6.922963e-10
5.775003e-08
3.192726e-07
-5.905382e-08
3.138903e-07
5.599586e-08
1.035291e-08
-5.795158e-08
6.97058e-08
3.129149e-07
-7.790605e-08
9.867875e-09
1.397622e-06
7.149963e-08
7.033771e-08
7.147523e-08
1.403182e-06
1.167952e-07
1.366177e-06
9.647558e-08
1.036816e-07
1.375495e-06
1.261248e-07
1.674098e-07
3.223454e-07
-2.499863e-08
4.39554e-08
1.994951e-08
-3.529868e-08
-3.634894e-08
5.404565e-08
2.921098e-08
3.195176e-07
-4.407989e-08
3.068355e-07
5.663026e-08
-2.91806e-08
-4.758071e-08
7.216799e-08
-5.153471e-08
3.116378e-07
-6.17846e-08
3.350723e-07
-9.341461e-09
4.82873e-08
7.404969e-09
-1.601074e-08
5.608006e-08
1.408813e-08
3.349605e-07
3.231374e-07
-6.390829e-09
5.706862e-08
-1.375086e-08
6.851329e-08
3.245322e-07
3.005825e-07
-4.111974e-08
8.018192e-08
-2.974331e-07
-7.139215e-08
-9.695115e-08
1.017455e-07
3.322883e-07
-8.803477e-08
3.217268e-07
1.079039e-07
-2.901791e-07
-8.202743e-08
-9.854386e-08
1.362804e-07
3.920016e-07
-1.833768e-07
-1.201295e-07
3.16657e-07
-2.919633e-09
7.932634e-08
-1.989798e-08
3.290612e-07
9.548838e-08
3.2037e-07
9.657944e-08
9.497653e-10
3.57841e-07
1.185844e-07
-3.967306e-08
3.935381e-07
-1.769241e-07
1.251489e-07
9.632454e-08
-1.057992e-07
-2.476698e-07
1.406739e-07
4.584915e-07
1.557109e-07
-1.136683e-07
4.699027e-07
1.59241e-07
-2.78549e-07
-1.355172e-07
1.669281e-07
-3.270733e-07
5.172129e-07
-1.348348e-07
3.600709e-07
-5.738488e-08
1.2241e-07
2.911417e-08
-1.098912e-07
1.367757e-07
4.122209e-07
6.163943e-08
4.148902e-07
1.464896e-07
-1.016827e-07
1.571077e-07
-1.617033e-07
4.765226e-07
8.233341e-08
1.753766e-07
-5.575096e-09
1.412124e-06
1.426724e-06
1.683088e-07
2.527738e-07
1.289773e-07
1.586168e-06
3.568205e-07
-8.245854e-08
6.613743e-09
3.923337e-08
3.00674e-07
-3.333644e-08
7.368556e-08
6.796394e-08
7.009281e-08
6.388945e-08
-4.778752e-07
6.765089e-08
-2.16861e-08
-2.14478e-08
-1.807582e-08
4.232753e-07
2.938816e-07
4.859927e-08
1.078689e-08
-4.373884e-08
6.732847e-08
2.811466e-07
1.175078e-08
-2.813627e-09
-6.353066e-08
3.16585e-07
1.621245e-08
4.060333e-08
1.630339e-08
3.14976e-07
5.098337e-08
-5.450114e-08
3.144561e-07
2.211822e-08
4.6224e-08
3.131437e-07
2.616675e-08
5.877752e-08
-1.082843e-07
1.038033e-07
-1.002509e-08
1.838121e-08
-2.925546e-07
-7.143739e-08
2.906877e-07
1.004479e-07
-9.585363e-09
3.794808e-09
-1.041984e-07
1.43389e-07
-1.176215e-07
3.596874e-07
-1.443944e-07
3.103319e-07
1.920802e-08
7.310802e-08
-7.731907e-08
1.822811e-08
9.218911e-08
3.171893e-07
3.133941e-07
3.438111e-08
8.502436e-08
2.068532e-08
1.125141e-07
3.418118e-07
2.862541e-07
1.887095e-08
6.17537e-08
-5.896425e-08
2.012977e-08
8.816913e-08
2.804394e-07
-9.073343e-08
2.86258e-07
7.304259e-08
3.108274e-08
-7.486678e-08
1.055702e-07
3.038505e-07
1.349111e-08
-1.16524e-07
3.144839e-07
2.956895e-08
5.690307e-08
4.009504e-08
3.157564e-07
7.296829e-08
3.210601e-07
6.231652e-08
3.936669e-08
3.307284e-07
8.115245e-08
5.484444e-08
3.287666e-07
-5.107659e-08
1.307127e-07
-1.375487e-07
-2.236594e-07
1.766014e-07
4.371578e-07
-1.789546e-07
3.965581e-07
1.577018e-07
-1.298138e-07
-1.716722e-07
2.019572e-07
5.146121e-07
-3.375171e-07
-2.061536e-07
3.29624e-07
4.639926e-08
1.04827e-07
7.331442e-09
1.346742e-07
3.84905e-07
3.692697e-07
1.169964e-07
4.856342e-08
1.483554e-07
4.487142e-07
-1.851125e-08
1.368286e-06
1.402378e-07
1.36856e-07
2.222732e-07
1.418617e-06
2.163554e-07
1.42256e-06
1.604558e-07
2.025519e-07
1.577716e-06
2.448769e-07
3.270935e-07
3.804239e-07
-1.661857e-07
1.448656e-07
-1.347417e-07
-2.940728e-07
1.741015e-07
4.723831e-07
-1.553648e-07
4.62163e-07
1.810794e-07
-2.790653e-07
-1.706754e-07
2.005648e-07
5.36643e-07
-3.933259e-07
-1.757917e-07
3.478663e-07
-1.136234e-08
1.265007e-07
-8.031365e-08
4.125038e-07
1.501046e-07
4.027548e-07
-3.977513e-08
1.485492e-07
4.813158e-07
-1.263386e-07
1.680287e-07
5.285136e-07
-3.676947e-07
1.858438e-07
-1.528286e-07
-3.687088e-07
1.804987e-07
5.293304e-07
-1.3968e-07
5.452541e-07
1.97468e-07
-4.165699e-07
-1.572038e-07
1.826468e-07
-3.702507e-07
5.0224e-07
-1.380908e-07
4.790577e-07
-1.544142e-07
1.720214e-07
-2.047753e-07
1.740158e-07
5.286126e-07
5.398141e-07
-1.962429e-07
1.807985e-07
-2.267361e-07
1.757888e-07
5.686329e-07
5.350225e-07
-3.873761e-07
2.049261e-07
-1.9448e-07
-4.523663e-07
2.082364e-07
5.652569e-07
-1.794304e-07
5.758926e-07
2.144527e-07
-4.65164e-07
-1.979452e-07
2.032341e-07
5.637903e-07
-4.69765e-07
-1.737331e-07
4.647248e-07
-7.702145e-08
1.623526e-07
-1.624756e-07
5.383041e-07
1.707942e-07
5.323342e-07
1.664487e-07
-1.126374e-07
5.917895e-07
1.64741e-07
-1.834378e-07
5.310216e-07
-4.217989e-07
1.927129e-07
-1.532486e-07
-3.52596e-07
1.709569e-07
4.752142e-07
-1.328042e-07
5.156418e-07
1.769867e-07
-4.095204e-07
-1.411166e-07
1.447591e-07
4.74699e-07
-3.454653e-07
-1.10947e-07
5.80559e-07
-2.130045e-07
1.672195e-07
-2.222025e-07
1.552713e-07
5.917111e-07
6.182862e-07
1.510252e-07
-2.135397e-07
1.307495e-07
6.186503e-07
-2.085571e-07
1.595178e-06
2.629857e-07
3.219457e-07
1.725437e-07
1.858651e-06
3.955849e-07
1.858635e-06
3.002398e-07
3.461628e-07
2.100138e-06
2.618813e-07
2.734253e-07
-2.818806e-07
1.460704e-07
2.07358e-07
4.989523e-07
-1.120085e-07
5.155752e-07
1.613684e-07
-3.225804e-07
-1.190309e-07
1.52465e-07
-2.820691e-07
2.800455e-07
-1.148024e-07
4.799363e-07
4.615072e-07
-1.554597e-07
1.513952e-07
1.008486e-07
-1.823246e-07
1.524812e-07
1.365096e-07
-1.437266e-07
4.985676e-07
5.162134e-07
1.65118e-07
-1.988999e-07
1.608165e-07
-2.066087e-07
5.321458e-07
2.134872e-08
4.302117e-07
-3.460246e-08
1.799021e-06
4.855715e-07
-3.21478e-07
1.672441e-07
-1.245877e-07
-2.625584e-07
1.512286e-07
4.261226e-07
-1.112903e-07
4.422335e-07
1.619359e-07
-3.042462e-07
-1.191611e-07
1.423286e-07
-2.527898e-07
-1.057509e-07
3.958871e-07
5.477267e-07
-2.212994e-07
1.705294e-07
-2.092995e-07
1.60508e-07
5.41138e-07
5.683555e-07
-2.246554e-07
1.655693e-07
-2.013839e-07
1.515577e-07
5.512109e-07
4.308551e-07
-2.955594e-07
1.416881e-07
-1.060157e-07
-2.617205e-07
1.128989e-07
4.091399e-07
-8.225301e-08
4.517897e-07
1.058038e-07
-3.034435e-07
-7.501045e-08
7.04379e-08
-2.753001e-07
-4.858098e-08
4.435124e-07
5.853041e-07
-2.068388e-07
1.302784e-07
-1.815439e-07
1.100229e-07
5.683401e-07
6.084427e-07
9.833635e-08
-1.891637e-07
7.216892e-08
-1.647864e-07
5.899543e-07
7.103588e-08
4.005968e-07
2.056531e-06
1.601872e-07
2.12364e-07
2.209429e-06
-8.741833e-09
3.322943e-07
1.409019e-08
-3.270589e-07
-1.705084e-08
-1.156735e-08
3.347964e-07
1.418174e-08
-1.742673e-08
-3.287259e-07
3.384338e-07
1.454705e-08
-3.315708e-07
-1.795941e-08
-1.501799e-08
3.373938e-07
-9.654944e-09
1.6075e-08
-1.87183e-08
-1.010968e-08
3.426284e-07
1.685319e-08
-1.957258e-08
3.404637e-07
-1.253731e-08
1.620262e-08
-1.898763e-08
3.462441e-07
-1.298998e-08
1.703077e-08
-1.993086e-08
3.473062e-07
-1.010017e-08
1.791953e-08
-2.002311e-08
-9.6982e-09
3.518731e-07
1.828699e-08
-2.03731e-08
3.514906e-07
-1.294963e-08
1.815309e-08
-2.055007e-08
-1.238192e-08
3.565307e-07
1.863539e-08
-2.099177e-08
3.450825e-07
1.630758e-08
-1.948286e-08
-1.601077e-08
3.519912e-07
1.79037e-08
-1.673837e-08
-2.106401e-08
3.582091e-07
1.871289e-08
-2.134609e-08
-1.653435e-08
3.643624e-07
1.966141e-08
-1.556002e-08
-2.263658e-08
3.558387e-07
-9.046729e-09
1.888473e-08
-2.036514e-08
-8.008423e-09
3.595446e-07
1.899612e-08
-2.032312e-08
3.610569e-07
-1.165704e-08
1.927714e-08
-2.119302e-08
3.651573e-07
-1.05674e-08
1.943948e-08
-2.09809e-08
3.625857e-07
-6.891129e-09
1.931163e-08
-1.980561e-08
-5.439289e-09
3.652313e-07
1.942596e-08
-1.967862e-08
3.688699e-07
-9.373551e-09
2.007247e-08
-2.130268e-08
-7.98932e-09
3.721447e-07
2.029946e-08
-2.102421e-08
3.701242e-07
2.004357e-08
-2.233852e-08
-1.512389e-08
3.752988e-07
2.039427e-08
-2.24119e-08
-1.372441e-08
3.799682e-07
2.074416e-08
-2.242266e-08
-1.236446e-08
3.839765e-07
2.141576e-08
-1.074248e-08
-2.267087e-08
3.671971e-07
-3.81969e-09
1.981376e-08
1.299591e-09
-1.925938e-08
-1.744587e-09
3.690922e-07
1.996238e-08
-7.226549e-10
-1.939033e-08
3.749802e-07
-6.315755e-09
2.079092e-08
-2.113033e-08
3.774953e-07
-4.287247e-09
2.091996e-08
-2.089246e-08
3.705978e-07
5.809958e-10
2.03303e-08
-3.280749e-09
-1.913611e-08
3.235392e-09
2.029926e-08
3.719261e-07
-6.155538e-09
-1.870744e-08
3.795933e-07
-2.146744e-09
2.142067e-08
-2.079092e-08
3.221791e-10
2.170865e-08
3.815305e-07
-2.073265e-08
3.876462e-07
2.177533e-08
-8.88488e-09
-2.287588e-08
3.907181e-07
2.243668e-08
-2.262682e-08
-7.169042e-09
3.931755e-07
2.253683e-08
-4.909175e-09
-2.223173e-08
2.338032e-08
3.951845e-07
-2.249667e-08
-2.570496e-09
1.202263e-08
-8.569215e-09
3.292331e-07
-3.247406e-07
-8.432412e-09
9.924772e-09
3.279675e-07
-3.233771e-07
1.212972e-08
-1.100921e-08
3.306329e-07
-3.261409e-07
1.010874e-08
-1.092902e-08
3.293579e-07
-3.248403e-07
8.641068e-09
-8.154398e-09
3.2607e-07
-3.223762e-07
-7.993885e-09
3.255789e-07
7.465216e-09
-3.219871e-07
8.769997e-09
-1.048097e-08
3.275217e-07
-3.238563e-07
-1.038167e-08
3.270517e-07
7.60716e-09
-3.235011e-07
1.218663e-08
3.34756e-07
-1.448429e-08
-3.289205e-07
1.033929e-08
3.327206e-07
-3.275283e-07
-1.427401e-08
8.76105e-09
3.313253e-07
-1.341592e-08
-3.268121e-07
3.30577e-07
7.646395e-09
-3.262432e-07
-1.360078e-08
1.350251e-06
5.191839e-08
-1.186634e-08
-1.199472e-08
-1.163558e-08
-1.156403e-08
6.205431e-08
-1.143505e-08
-1.095693e-08
-1.10424e-08
-1.041287e-08