/*--------------------------------*- C++ -*----------------------------------*\
| =========                 |                                                 |
| \\      /  F ield         | OpenFOAM: The Open Source CFD Toolbox           |
|  \\    /   O peration     | Version:  2206                                  |
|   \\  /    A nd           | Website:  www.openfoam.com                      |
|    \\/     M anipulation  |                                                 |
\*---------------------------------------------------------------------------*/
FoamFile
{
    version     2.0;
    format      ascii;
    arch        "LSB;label=32;scalar=64";
    class       volScalarField;
    location    "1500/fluid_0";
    object      alphat;
}
// * * * * * * * * * * * * * * * * * * * * * * * * * * * * * * * * * * * * * //

dimensions      [1 -1 -1 0 0 0 0];

internalField   nonuniform List<scalar> 
55970
(
7.862591e-05
7.665516e-05
8.128634e-05
5.200463e-05
5.156497e-05
3.798323e-05
2.903232e-05
2.329299e-05
5.107945e-05
3.682674e-05
5.204065e-05
3.747071e-05
2.831962e-05
2.28354e-05
2.925867e-05
2.355032e-05
2.997017e-07
8.942537e-07
4.573931e-07
3.890734e-06
1.215852e-06
4.04859e-06
1.418806e-06
1.48277e-07
1.253185e-07
2.744048e-07
2.32373e-07
3.088809e-07
1.513948e-07
4.717123e-07
2.967055e-07
1.137926e-06
1.558972e-05
1.930772e-05
1.645837e-05
6.611256e-07
1.390506e-05
1.263603e-05
1.413301e-06
1.435485e-05
1.289662e-05
1.90454e-05
1.625504e-05
1.945448e-05
1.6551e-05
1.413558e-05
1.261759e-05
1.423743e-05
1.255898e-05
0.0001467969
0.0001835121
0.0001726464
0.0001411516
0.0001618129
0.0002185202
0.0002008847
0.0002329209
0.0001891949
0.0002151801
0.0001363111
0.0001301694
0.0001343433
0.0001284526
0.0001731325
0.000170834
0.0001681221
0.0001660809
0.0001369485
0.0001199365
0.0001514284
0.0001622531
9.132609e-05
7.236268e-05
0.0001496339
0.0001596713
0.0002238136
0.0001794857
0.0001882951
0.0001933004
0.0002057732
0.0001863586
0.0002044627
0.000185673
0.0002027303
0.0001301314
0.0001239002
0.0001572121
0.0001525129
0.0002631517
0.0002878032
0.0002362993
0.0002568903
0.0003036647
0.0003221092
0.0002703164
0.0002796523
0.0002080057
0.0002046554
0.0001943068
0.0001906248
0.0002220969
0.000216197
0.000205413
0.000200046
0.0002462457
0.0002504099
0.0002186533
0.0002298643
0.000225623
0.0002368941
0.0002701404
0.0003032813
0.0002142827
0.0002400171
0.0002065952
0.0002265976
0.0002387044
0.0002448295
0.0002349892
0.0002346927
0.0002127856
0.0002280142
0.0001984138
0.0002071768
0.0001740541
0.0001582488
0.0001744345
0.0001483759
4.567811e-05
0.0001079612
5.948224e-05
5.002969e-05
0.0001417155
0.0001210685
3.970482e-05
3.516577e-05
9.373638e-05
8.146013e-05
4.300244e-05
3.772277e-05
0.0001032676
8.955635e-05
0.0002305562
0.0002091933
0.0002750596
0.0002387522
0.0001901648
0.0001956163
0.0001795643
0.0001805613
0.0001689028
0.0001285694
0.0001807819
0.0001277513
0.0001540227
0.0001300451
0.0001388515
0.0001145646
8.487299e-05
6.285258e-05
0.0001419985
0.0001138033
3.164307e-05
2.894842e-05
7.205369e-05
6.412349e-05
3.368778e-05
3.056354e-05
7.856109e-05
6.996675e-05
2.682225e-05
2.517631e-05
5.73059e-05
4.496522e-05
2.805972e-05
2.610179e-05
5.650039e-05
4.611034e-05
9.704038e-05
7.275525e-05
9.29719e-05
6.758896e-05
9.658681e-05
7.729068e-05
8.54922e-05
6.748042e-05
5.49539e-05
4.1163e-05
4.827968e-05
3.646892e-05
5.768268e-05
4.574458e-05
5.112676e-05
3.98382e-05
4.939822e-05
4.063317e-05
8.017513e-05
5.396015e-05
0.0003108008
0.0002451831
0.0003208093
0.0002352668
0.0002087301
0.0002042553
0.000188882
0.0001766319
0.000171838
0.0001169922
0.0001622234
0.0001076732
0.0001419319
0.0001131121
0.0001249432
9.840579e-05
0.0002897902
0.0002084765
0.0001795278
0.0001826103
0.0001652981
0.0001646967
0.0001453039
0.0001413334
9.250701e-05
0.0001229857
8.092999e-05
0.0001117845
8.781552e-05
0.0001015923
7.876757e-05
0.0001374886
0.0001019383
0.0001200276
8.448136e-05
8.339772e-05
5.787608e-05
7.29501e-05
5.066984e-05
7.956296e-05
6.183598e-05
7.06912e-05
5.408175e-05
4.171858e-05
3.024349e-05
3.520975e-05
2.498354e-05
4.488722e-05
3.508928e-05
4.005891e-05
3.0222e-05
6.285982e-05
4.30479e-05
5.524317e-05
3.667336e-05
6.093264e-05
4.664445e-05
5.60208e-05
4.212648e-05
2.870494e-05
1.989529e-05
2.49421e-05
1.642237e-05
3.29511e-05
2.484741e-05
3.035171e-05
2.233157e-05
6.790039e-05
4.416425e-05
5.485206e-05
3.53339e-05
8.931466e-07
4.248991e-06
1.672801e-06
4.859545e-07
4.18147e-07
7.306407e-07
6.311899e-07
7.042456e-07
5.045181e-07
9.086166e-08
5.946812e-08
1.844899e-07
1.500697e-07
1.22205e-07
7.375633e-08
2.025253e-07
1.703173e-07
4.34635e-08
3.402026e-08
1.278861e-07
1.077191e-07
4.966721e-08
3.755139e-08
1.388388e-07
1.150245e-07
2.898654e-07
2.715652e-07
4.346553e-07
4.289109e-07
2.807326e-07
2.875748e-07
2.849981e-07
2.525411e-07
5.438824e-07
5.049089e-07
2.992534e-07
2.666357e-07
1.001765e-07
9.704786e-08
1.304312e-07
1.423239e-07
7.822068e-08
5.786768e-08
1.21873e-07
8.961941e-08
1.777034e-06
7.16916e-06
7.044367e-06
1.111678e-05
1.108529e-05
1.278686e-06
2.198677e-06
1.735522e-06
1.152346e-06
9.411238e-07
1.855253e-06
1.318353e-06
4.611576e-07
5.201368e-07
5.879325e-07
4.727011e-07
9.427505e-06
9.317111e-06
9.052144e-06
8.922017e-06
8.938595e-06
8.720555e-06
8.361572e-06
8.145037e-06
7.698468e-06
8.095903e-06
7.937842e-06
7.320879e-06
7.015835e-06
7.853783e-06
6.734066e-06
6.521549e-06
2.390038e-05
2.308038e-05
3.484948e-05
2.739416e-05
2.456719e-05
2.347119e-05
3.700752e-05
3.006422e-05
2.153242e-05
1.793471e-05
2.154536e-05
1.709285e-05
2.27422e-05
1.997582e-05
2.430858e-05
2.014672e-05
3.135271e-05
1.353722e-06
2.730161e-05
1.190621e-06
3.499278e-05
2.814022e-05
3.118139e-05
2.449041e-05
3.657717e-06
1.743968e-06
1.380734e-06
2.359157e-05
2.192233e-05
1.753336e-05
1.918822e-05
1.40345e-05
3.482363e-05
2.632187e-05
3.653792e-05
2.472214e-05
1.462851e-05
1.149505e-05
1.257016e-05
1.654125e-05
1.641529e-05
1.397592e-05
1.605384e-05
1.355472e-05
1.852531e-05
2.96973e-05
2.79735e-05
4.717039e-05
1.325104e-05
2.282995e-05
2.205509e-05
3.242506e-05
4.731861e-05
5.96227e-05
5.959056e-05
6.056694e-05
3.300446e-05
4.866178e-05
4.845915e-05
6.012181e-05
1.832607e-05
1.616042e-05
3.227495e-05
2.171231e-05
3.568571e-06
1.799888e-05
1.138699e-05
2.594942e-05
2.076666e-05
2.297518e-05
1.702247e-05
1.406982e-06
1.697802e-05
1.787171e-05
3.633046e-05
1.429747e-05
2.194281e-05
1.441077e-05
2.209785e-05
1.338325e-05
1.728762e-05
1.125296e-05
1.708966e-05
1.801563e-05
1.226176e-05
1.58787e-05
1.761312e-05
2.511151e-05
4.592215e-05
3.650332e-05
4.946009e-05
1.658042e-05
2.926148e-05
2.05564e-05
3.665199e-05
2.968612e-05
1.566111e-05
2.168654e-05
2.066316e-05
4.349027e-05
5.798126e-05
5.35565e-05
5.6598e-05
2.785214e-05
4.511499e-05
3.806076e-05
5.287293e-05
5.880404e-05
5.068495e-05
4.883413e-05
3.856936e-05
5.737739e-05
6.101509e-05
5.825039e-05
5.577901e-05
5.412032e-05
4.839846e-05
4.774373e-05
3.835339e-05
4.526362e-05
5.408848e-05
4.790448e-05
5.081318e-05
3.80707e-05
3.020117e-05
2.985383e-05
2.566303e-05
5.39485e-05
4.903637e-05
4.790385e-05
4.327343e-05
2.749299e-05
4.492936e-05
3.387253e-05
4.531333e-05
6.151586e-05
5.35571e-05
4.523316e-05
5.945038e-05
6.324649e-05
6.312111e-05
5.968934e-05
4.909154e-05
4.128939e-05
3.483093e-05
3.16967e-05
2.905376e-05
5.761541e-05
5.14231e-05
4.990887e-05
4.411761e-05
2.692104e-05
2.7194e-05
2.534862e-05
2.717579e-05
4.375533e-05
3.982521e-05
3.970652e-05
3.77203e-05
5.399087e-05
4.934655e-05
7.734745e-05
6.637965e-05
4.511288e-05
5.174168e-05
3.71224e-05
4.564076e-05
3.232349e-05
2.872916e-05
2.258849e-05
2.439368e-05
1.921712e-05
3.026054e-05
2.084527e-05
1.591934e-05
1.251583e-05
1.862783e-05
1.574217e-05
1.581347e-05
1.311265e-05
1.340941e-05
1.162708e-05
1.1198e-05
9.681451e-06
1.013253e-05
8.364253e-06
7.066449e-06
6.067931e-06
1.019976e-05
9.105581e-06
8.474565e-06
7.47971e-06
8.236055e-06
7.522204e-06
6.683935e-06
6.016829e-06
5.287966e-06
4.649466e-06
4.136775e-06
3.71684e-06
0.0001039678
9.911789e-05
0.0001018204
9.927407e-05
0.0001227455
0.0001210412
0.0001176397
0.0001179003
7.509563e-05
8.087716e-05
8.826335e-05
8.975839e-05
0.0001034918
8.48576e-05
0.0001181227
0.0001105277
4.986384e-05
3.594429e-05
6.100661e-05
4.283715e-05
2.706905e-05
2.107461e-05
3.199029e-05
2.562253e-05
6.573783e-05
4.478735e-05
6.800062e-05
4.827475e-05
3.453532e-05
2.761292e-05
3.653326e-05
2.950392e-05
0.0001328593
0.0001332141
0.0001281038
0.000126769
0.0001370623
0.0001362848
0.0001305406
0.0001294389
8.656125e-05
8.982866e-05
8.203204e-05
8.453919e-05
0.0001237193
0.0001107905
0.0001214035
0.0001047504
6.807771e-05
4.750779e-05
6.204112e-05
4.522895e-05
3.684365e-05
2.958476e-05
3.463381e-05
2.837945e-05
5.702508e-05
4.156357e-05
5.707199e-05
4.278995e-05
3.305996e-05
2.715581e-05
3.332411e-05
2.734816e-05
5.75244e-05
4.242467e-05
9.927134e-05
8.110949e-05
1.717099e-05
1.429045e-05
2.109008e-05
1.794219e-05
1.232351e-05
1.077353e-05
1.560852e-05
1.395156e-05
2.330432e-05
2.003806e-05
2.464062e-05
2.135417e-05
1.771974e-05
1.598419e-05
1.888945e-05
1.717437e-05
3.337366e-05
2.741789e-05
6.696345e-05
5.390679e-05
9.566788e-06
8.600693e-06
1.264298e-05
1.159901e-05
7.839358e-06
7.224312e-06
1.082857e-05
1.017824e-05
1.471692e-05
1.376181e-05
1.592848e-05
1.504254e-05
1.305692e-05
1.250911e-05
1.436917e-05
1.386873e-05
9.634954e-05
7.953351e-05
8.811394e-05
7.099556e-05
2.509465e-05
2.171221e-05
2.408895e-05
2.106481e-05
1.93786e-05
1.761482e-05
1.88884e-05
1.734012e-05
2.312518e-05
2.030245e-05
2.31714e-05
2.027078e-05
1.835685e-05
1.692269e-05
1.825394e-05
1.683071e-05
6.289126e-05
4.791623e-05
5.53242e-05
4.178572e-05
1.644934e-05
1.560854e-05
1.630265e-05
1.557473e-05
1.502008e-05
1.455694e-05
1.504605e-05
1.469141e-05
1.602265e-05
1.534935e-05
1.594098e-05
1.529991e-05
1.491343e-05
1.462304e-05
1.487301e-05
1.46214e-05
6.93243e-06
6.423478e-06
5.446834e-06
4.968856e-06
5.96794e-06
5.596364e-06
4.57863e-06
4.238136e-06
3.369387e-06
3.071283e-06
2.822582e-06
2.60543e-06
5.27682e-06
5.004696e-06
3.942791e-06
3.688322e-06
2.420137e-06
2.257297e-06
2.115484e-06
2.322648e-05
2.021867e-05
4.18785e-05
3.276074e-05
6.728162e-06
6.295306e-06
9.646885e-06
9.212687e-06
5.948179e-06
5.662326e-06
8.885476e-06
8.641094e-06
1.210061e-05
1.179803e-05
1.354655e-05
1.335958e-05
1.1662e-05
1.160365e-05
1.33669e-05
1.348867e-05
1.80153e-05
2.307344e-05
1.601938e-05
5.442761e-06
5.254934e-06
8.462985e-06
8.33642e-06
5.079972e-06
8.160485e-06
8.023887e-06
1.157184e-05
1.167527e-05
1.353882e-05
1.371603e-05
1.061347e-05
9.963805e-06
1.25742e-05
1.17333e-05
3.731499e-05
2.734213e-05
3.228289e-05
2.048563e-05
1.433394e-05
1.429166e-05
1.459343e-05
1.463068e-05
1.445102e-05
1.477428e-05
1.482609e-05
1.526391e-05
1.461201e-05
1.474122e-05
1.459668e-05
1.472386e-05
1.471066e-05
1.486926e-05
1.465109e-05
1.467124e-05
1.696751e-05
1.855577e-05
1.53558e-05
2.19472e-05
1.408132e-05
1.376979e-05
1.451818e-05
1.396268e-05
1.161179e-05
1.028561e-05
1.183676e-05
1.042777e-05
1.352063e-05
1.247442e-05
1.327038e-05
1.209312e-05
1.115508e-05
1.026503e-05
1.092304e-05
1.018831e-05
2.064306e-05
8.030075e-06
6.98179e-06
9.827258e-06
8.753333e-06
8.443132e-06
2.871838e-05
3.6299e-05
2.857491e-05
3.310991e-05
9.309231e-06
9.094902e-06
9.602723e-06
9.625081e-06
9.945029e-06
1.103774e-05
1.060532e-05
1.186617e-05
1.010004e-05
1.017528e-05
1.011525e-05
1.011643e-05
1.062547e-05
1.114417e-05
1.007207e-05
9.956432e-06
3.576556e-05
1.17404e-05
1.236147e-05
9.79232e-06
9.65314e-06
2.74309e-08
4.407059e-07
7.780103e-08
4.804486e-07
1.008943e-07
9.70791e-07
1.843711e-07
1.008613e-06
2.16338e-07
1.676096e-08
5.028437e-09
1.583908e-08
2.494255e-08
7.818992e-09
2.270201e-08
4.882347e-09
1.984477e-09
9.134802e-09
4.426564e-09
6.480357e-09
2.58913e-09
1.103922e-08
5.338209e-09
2.566906e-08
3.818959e-08
1.109786e-08
3.667603e-08
5.11331e-08
1.544846e-08
5.547536e-09
4.237048e-08
8.424457e-09
1.183221e-07
1.553529e-07
1.636329e-07
4.059685e-07
1.29872e-07
4.38074e-07
1.354941e-07
1.757067e-07
1.849563e-07
4.022428e-08
5.441121e-08
5.123886e-08
1.45859e-08
6.8131e-08
1.96651e-08
6.60157e-08
1.91377e-08
2.500115e-08
7.112598e-09
8.814961e-09
0.0004168488
3.985201e-06
4.498998e-06
1.71849e-06
3.466789e-08
5.292442e-07
1.29323e-07
5.745503e-07
1.645331e-07
1.055795e-06
2.52204e-07
2.949569e-07
3.858816e-08
1.525816e-08
6.027151e-08
3.054746e-08
6.313493e-08
1.975275e-08
8.936638e-08
3.686893e-08
6.480479e-07
2.079328e-07
7.829221e-07
2.265749e-07
3.474055e-07
9.167018e-08
5.215183e-08
1.32719e-07
7.520818e-08
1.239538e-07
6.10289e-08
3.925189e-10
4.809016e-10
6.131522e-10
7.718056e-10
5.538354e-10
9.885331e-10
6.90767e-10
1.260071e-09
8.564821e-10
4.848819e-10
5.80075e-10
1.628612e-09
1.067931e-09
2.063676e-09
1.302902e-09
7.081358e-10
8.441093e-10
5.682774e-10
8.056192e-09
5.038632e-09
1.079065e-08
6.760824e-09
3.390694e-09
2.313785e-09
4.294739e-09
2.773356e-09
3.070248e-08
1.541755e-08
3.886482e-09
1.405902e-08
8.43081e-09
5.487258e-09
1.739635e-08
1.098484e-08
5.523331e-09
3.321558e-09
6.846175e-09
4.058036e-09
4.574877e-08
2.151469e-08
9.350465e-09
2.697967e-09
1.151171e-08
2.585568e-09
1.584697e-09
3.196519e-09
1.893972e-09
1.012689e-09
6.734037e-10
1.176806e-09
7.661498e-10
1.822469e-09
4.103935e-09
2.248894e-09
2.137694e-09
4.602466e-09
2.496311e-09
1.349916e-09
8.587044e-10
1.482366e-09
9.346217e-10
4.698224e-10
5.226899e-10
3.759055e-10
5.785977e-10
4.093425e-10
6.218681e-10
4.364577e-10
3.104111e-10
2.454378e-09
5.101613e-09
2.671511e-09
2.581538e-09
1.106226e-09
1.575979e-09
9.88102e-10
6.576968e-10
4.585487e-10
3.265076e-10
7.176308e-09
3.750553e-09
2.009175e-08
1.326752e-08
8.731493e-09
4.459301e-09
2.220839e-08
1.49555e-08
8.176215e-09
4.829544e-09
2.360545e-09
9.336293e-09
5.510175e-09
4.214317e-08
3.162556e-08
7.416883e-08
6.055313e-08
4.463056e-08
3.49579e-08
2.179989e-08
1.390855e-08
4.526638e-08
3.118286e-08
2.431642e-08
1.567578e-08
4.899099e-08
3.075964e-09
3.417177e-09
9.559096e-09
7.172491e-09
2.255796e-08
1.658802e-08
1.048819e-08
3.520593e-08
4.127548e-08
6.815005e-08
8.689494e-08
1.334149e-08
4.165777e-08
6.706283e-08
1.111034e-07
3.967898e-08
3.455729e-08
1.02549e-07
9.900251e-08
5.120597e-08
4.278768e-08
1.259536e-07
1.151609e-07
1.751749e-07
2.622424e-07
4.608138e-10
2.960147e-08
6.36475e-08
1.127168e-07
1.247532e-07
7.652591e-08
2.634148e-07
1.994706e-07
6.354263e-08
5.585984e-08
1.540178e-07
1.265486e-07
8.909053e-08
9.124209e-08
2.058328e-07
1.955359e-07
4.685806e-07
4.320138e-07
3.08369e-08
2.690086e-08
9.811565e-08
9.157943e-08
3.733341e-08
3.153164e-08
1.065567e-07
9.981955e-08
8.559153e-08
8.010426e-08
9.470105e-08
8.644143e-08
2.997042e-07
3.079503e-07
4.785819e-08
3.777947e-08
1.207489e-07
1.037837e-07
6.536312e-08
4.723108e-08
1.472767e-07
1.225368e-07
3.189536e-08
1.05512e-07
9.394602e-08
3.728476e-08
3.025773e-08
1.159592e-07
1.009515e-07
2.753456e-07
3.529437e-07
5.838053e-07
5.955596e-07
1.351982e-06
1.071724e-06
1.109533e-06
1.0207e-06
2.357386e-06
1.988532e-06
8.489989e-07
1.054477e-06
1.402367e-06
2.489509e-06
4.727531e-07
1.142946e-06
5.48001e-07
2.02101e-06
7.065848e-07
9.638108e-08
3.151914e-07
8.72949e-08
2.845798e-07
6.032218e-08
2.140221e-07
5.56365e-08
1.909789e-07
9.351562e-07
3.696306e-08
1.304761e-07
1.09657e-07
7.500096e-08
4.057217e-07
0.0001016512
2.091287e-06
5.708473e-10
1.332376e-05
1.711732e-08
3.481917e-08
7.064398e-08
2.012171e-07
2.425911e-08
4.306436e-08
1.033066e-08
2.365128e-08
1.802286e-08
2.638819e-08
6.538777e-09
1.283019e-08
8.767108e-08
2.765664e-07
6.261317e-08
2.136027e-07
3.672203e-08
1.058274e-07
2.750998e-08
7.923397e-08
4.746304e-08
6.778151e-08
1.431319e-08
1.786515e-08
4.249821e-09
6.833419e-09
1.076035e-08
1.286124e-08
2.751166e-09
3.906228e-09
2.215266e-08
4.720558e-08
1.171322e-08
2.768185e-08
1.262787e-08
1.894392e-08
5.053528e-09
9.374053e-09
1.03562e-06
3.748829e-06
7.799761e-07
2.081118e-06
7.308263e-07
1.91927e-06
2.386543e-07
7.280121e-07
2.430019e-07
6.546274e-07
3.639112e-06
1.868977e-07
5.481151e-07
9.069466e-08
2.427421e-07
6.889197e-08
1.83357e-07
2.560475e-08
7.275811e-08
2.018498e-08
4.876538e-08
3.40993e-09
6.179081e-09
1.400707e-09
3.000744e-09
2.557092e-09
4.262313e-09
1.892054e-09
1.050389e-08
2.117779e-08
6.152296e-09
1.419921e-08
7.244258e-09
1.544902e-08
3.860284e-09
9.155326e-09
8.650202e-09
4.432613e-09
1.893271e-09
3.018213e-09
1.21465e-09
1.427899e-09
2.157382e-09
5.039651e-09
9.550611e-09
2.409054e-09
5.187153e-09
3.44921e-09
6.265494e-09
1.477695e-09
3.159409e-09
4.310322e-08
1.795124e-07
2.191732e-08
5.667863e-08
1.520961e-08
4.406172e-08
1.073228e-08
3.283635e-08
2.248516e-08
1.494127e-07
1.484102e-08
5.822036e-08
5.758966e-09
1.594465e-08
6.883268e-09
3.657378e-08
8.259349e-08
2.713831e-08
6.797904e-08
1.491405e-08
4.062405e-08
1.101956e-08
2.997576e-08
3.508396e-08
1.031556e-07
2.628164e-07
9.014345e-08
2.396178e-07
4.296766e-08
1.361324e-07
1.200979e-07
1.092341e-07
1.964968e-08
5.818779e-08
2.179684e-08
1.069546e-09
1.545309e-09
8.222304e-10
1.128936e-09
2.346899e-09
3.821377e-09
1.732975e-09
1.628406e-09
2.476604e-09
6.26164e-10
8.219093e-10
4.966945e-10
6.281873e-10
1.120999e-09
1.562137e-09
8.111966e-10
1.047224e-09
4.590324e-09
1.588155e-08
7.163805e-09
1.800384e-08
1.162253e-08
7.909439e-09
3.844937e-09
6.770999e-07
1.897684e-06
6.30284e-07
2.011346e-07
5.941734e-07
1.701984e-07
4.140047e-06
7.443371e-06
4.823245e-08
1.513973e-07
1.099886e-08
1.106633e-08
1.899958e-08
2.647891e-09
3.870512e-09
5.826769e-09
2.907146e-09
4.253008e-09
1.187626e-08
2.264747e-09
3.069569e-09
2.28047e-09
3.201635e-10
2.663515e-10
7.999666e-09
1.719336e-09
3.050116e-08
2.645035e-08
8.335836e-09
9.931224e-09
1.938758e-09
2.580269e-09
5.959507e-09
7.453886e-09
1.31356e-09
1.75731e-09
9.572027e-09
1.008586e-08
2.87524e-09
3.586311e-09
7.544903e-09
6.826958e-09
1.941972e-09
1.913762e-09
1.784601e-08
1.572712e-08
4.338578e-09
5.434892e-09
3.051087e-09
3.773749e-09
5.719763e-09
5.301512e-09
3.955106e-09
3.814387e-09
2.733554e-08
1.190317e-08
2.478347e-08
5.981289e-09
1.232082e-08
5.444063e-09
6.594393e-09
1.990141e-09
2.847869e-09
8.036505e-09
1.084597e-08
3.687037e-09
2.573451e-09
9.582341e-10
2.515145e-09
1.484908e-09
5.92932e-12
2.942768e-10
4.014528e-10
4.910341e-10
3.303252e-10
3.965436e-10
6.086769e-10
7.283325e-10
4.754256e-10
5.509438e-10
2.670833e-10
3.151558e-10
2.238642e-10
2.610461e-10
3.741432e-10
4.25593e-10
3.062619e-10
3.451445e-10
8.094463e-10
1.041009e-09
6.161939e-10
7.349407e-10
4.72298e-10
5.278e-10
3.769872e-10
4.052143e-10
1.843509e-10
2.133826e-10
2.505189e-10
2.814743e-10
3.070295e-10
3.251129e-10
1.071141e-08
1.299273e-08
2.174632e-09
2.63324e-09
1.640004e-09
1.931519e-09
2.987599e-09
3.072469e-09
2.250073e-09
2.390284e-09
7.338823e-09
9.213313e-09
1.47432e-09
1.700697e-09
1.870929e-09
1.368573e-09
1.514009e-09
7.641523e-09
2.144041e-09
2.502303e-09
1.860584e-09
2.146263e-09
1.787249e-09
9.841168e-10
3.753403e-10
1.098856e-09
5.817892e-10
9.882583e-09
8.232616e-09
1.906931e-09
1.842852e-09
1.651509e-09
1.685668e-09
1.606449e-09
1.384288e-09
1.633362e-09
1.561744e-09
1.954028e-05
1.311159e-05
5.448375e-06
5.728637e-06
2.1127e-05
1.68379e-05
5.234256e-06
7.792981e-06
4.336529e-06
5.196851e-06
2.634737e-06
1.218295e-05
6.707704e-06
5.683254e-06
4.731755e-06
2.042132e-06
2.089577e-06
9.024562e-07
8.967918e-07
2.007189e-06
2.032484e-06
8.793154e-07
2.153226e-06
2.231552e-06
9.036103e-07
9.255713e-07
2.078421e-06
2.141816e-06
8.802465e-07
8.93084e-07
7.239552e-08
6.94467e-08
6.974689e-08
1.792483e-06
1.875358e-06
1.893365e-06
1.941305e-06
2.007742e-06
8.680945e-07
8.680948e-07
1.927687e-06
1.967347e-06
8.315172e-07
2.345666e-06
2.358323e-06
9.702653e-07
1.010457e-06
2.235446e-06
2.341679e-06
9.194822e-07
9.624203e-07
1.436705e-06
1.109663e-06
7.999275e-07
5.510686e-07
2.056851e-06
1.485464e-06
9.633834e-07
8.831695e-07
2.704607e-07
2.964754e-07
7.499721e-08
7.865244e-08
7.172421e-08
7.431416e-08
8.382584e-08
8.937637e-08
7.784381e-08
8.165705e-08
7.080054e-08
7.18926e-08
7.337454e-08
7.571883e-08
7.396373e-08
2.791495e-07
1.946204e-07
9.475004e-08
9.848218e-08
2.906445e-08
3.257514e-08
8.618935e-08
9.019345e-08
2.665001e-08
9.582621e-08
9.064911e-08
3.586574e-08
3.779093e-08
9.026134e-08
8.830261e-08
2.917372e-08
3.102759e-08
2.848912e-07
2.848682e-07
7.893613e-08
8.227484e-08
7.459918e-08
7.580171e-08
8.482806e-08
8.668985e-08
7.751457e-08
7.899808e-08
2.094765e-06
2.190189e-06
8.786606e-07
8.995139e-07
2.025838e-06
2.091076e-06
8.37381e-07
8.457557e-07
2.236028e-06
2.230771e-06
9.305821e-07
9.570752e-07
2.156372e-06
2.226735e-06
8.610698e-07
8.8306e-07
6.888834e-08
6.905898e-08
6.966813e-08
7.066876e-08
7.131542e-08
6.684412e-08
6.057409e-08
1.985812e-05
1.9689e-05
1.86531e-05
1.820265e-05
1.684225e-05
1.167625e-05
5.181915e-06
1.806707e-05
1.610695e-05
1.907623e-06
1.912669e-06
1.92363e-06
1.946869e-06
1.981682e-06
7.868209e-07
1.889533e-06
2.028749e-06
2.08028e-06
7.961531e-07
8.063587e-07
1.911687e-06
1.94327e-06
7.452641e-07
1.712282e-06
1.734161e-06
1.766669e-06
7.550842e-09
8.120439e-09
6.774076e-09
1.180441e-09
1.023255e-09
1.448126e-09
1.333489e-09
0.0003330217
0.0002826718
0.0002791639
0.0002644117
0.0002360043
0.0002179083
0.0002091091
0.0002027321
0.0001950405
0.0001962083
0.0001866233
0.0001820261
0.0001742168
0.0002337726
0.0002237276
0.0002215509
0.0002077283
0.0001828883
0.0001831939
0.0001700186
0.000167152
0.0002014908
0.0001821423
0.0001815077
0.0001640281
0.0001462485
0.0001381046
0.0001343729
0.000126681
0.0001611068
0.0001298101
0.0001391846
0.0001093082
0.0002567898
0.000181949
0.0002046846
0.0001657719
0.0001331169
0.0001058445
0.0001531145
0.0001421438
0.0001524244
0.000140757
0.0001070672
9.988889e-05
0.0001054623
9.954676e-05
0.0001465596
0.000152742
0.0001370325
0.0001323643
0.0001197237
0.0001109595
0.000104445
0.000101949
9.598922e-05
0.0001061409
9.836441e-05
9.289594e-05
8.725576e-05
8.393001e-05
8.030193e-05
7.699555e-05
7.25207e-05
0.000111864
8.958054e-05
8.767838e-05
7.323952e-05
1.51987e-05
1.257795e-05
1.541975e-05
1.179618e-05
7.738063e-06
6.304457e-06
7.787058e-06
6.029977e-06
3.510269e-06
1.317845e-05
3.119885e-06
1.140624e-05
0.000142025
0.0001242116
0.0001314599
0.0001147593
0.0001043352
6.98305e-05
9.133834e-05
6.116572e-05
8.561083e-05
6.730176e-05
8.177417e-05
6.351161e-05
9.646134e-05
0.0001086344
9.55161e-05
0.0001033188
9.12677e-05
7.959087e-05
5.384119e-05
7.067721e-05
4.940842e-05
6.800313e-05
5.424362e-05
6.725566e-05
5.348198e-05
0.0001004754
6.9831e-05
8.373912e-05
5.929202e-05
4.78177e-05
3.049865e-05
4.113083e-05
2.536683e-05
4.694749e-05
3.580042e-05
4.503448e-05
3.330228e-05
2.001682e-05
1.289532e-05
1.875754e-05
1.018601e-05
2.437636e-05
1.87731e-05
2.296389e-05
1.785662e-05
3.7492e-05
2.337518e-05
3.315722e-05
2.071176e-05
3.806517e-05
2.915425e-05
3.776724e-05
2.795317e-05
1.759831e-05
1.093856e-05
1.53514e-05
6.439103e-06
2.009023e-05
1.555501e-05
1.975656e-05
1.222306e-05
4.523096e-05
2.976976e-05
3.882706e-05
2.632766e-05
8.422062e-05
7.492732e-05
8.039834e-05
7.354702e-05
4.587921e-05
4.211291e-05
5.647986e-05
4.605365e-05
5.659389e-05
4.606874e-05
6.602136e-05
6.107217e-05
6.191136e-05
5.608909e-05
3.922233e-05
3.478938e-05
4.839206e-05
4.031504e-05
4.535315e-05
3.798737e-05
7.033385e-05
5.1438e-05
5.926871e-05
4.45718e-05
3.153952e-05
1.909778e-05
2.891095e-05
1.776259e-05
3.292948e-05
2.422424e-05
3.327981e-05
2.424284e-05
1.435891e-05
1.070744e-05
1.076787e-05
5.850968e-06
1.843308e-05
9.206824e-06
1.794728e-05
8.930623e-06
2.79108e-05
1.766438e-05
2.500695e-05
1.629167e-05
2.955407e-05
2.247713e-05
2.788919e-05
2.152915e-05
1.094397e-05
5.467123e-06
9.588074e-06
5.33606e-06
1.728125e-05
8.398012e-06
1.569975e-05
7.572527e-06
3.532556e-05
2.30585e-05
3.196543e-05
2.050042e-05
7.761718e-05
7.213104e-05
6.965387e-05
6.879294e-05
4.942151e-05
3.793406e-05
3.135907e-05
6.12141e-05
4.474292e-05
5.875745e-05
4.390296e-05
3.544182e-05
2.951783e-05
3.441068e-05
2.86805e-05
6.624974e-06
6.979714e-06
4.808475e-06
4.574223e-06
2.041745e-06
2.090106e-06
2.111659e-06
2.131339e-06
9.05261e-07
1.993749e-05
1.733918e-05
1.582087e-05
1.503171e-05
1.212475e-05
9.492708e-06
1.1367e-05
8.695414e-06
7.339041e-06
7.655104e-06
4.498674e-06
4.49078e-06
7.933233e-06
6.465183e-06
4.541516e-06
4.618689e-06
6.614746e-06
5.027069e-06
5.850761e-06
4.272337e-06
2.442263e-06
8.033834e-06
2.394366e-06
6.695501e-06
4.802505e-06
3.576637e-06
3.732593e-06
2.179097e-06
3.520076e-06
1.773636e-06
4.231108e-06
1.774743e-06
2.654212e-06
3.634411e-07
3.951989e-07
2.01886e-07
4.225576e-07
4.547071e-07
2.108965e-07
2.275952e-07
8.294594e-08
3.086892e-08
8.676654e-08
9.480383e-08
2.871433e-08
2.150961e-06
2.18379e-06
9.018945e-07
9.067556e-07
9.629161e-07
1.001536e-06
2.24346e-06
2.319171e-06
9.269892e-07
9.615757e-07
2.907239e-07
7.732255e-08
7.559946e-08
8.206443e-08
8.89891e-08
7.914409e-08
8.439184e-08
7.502465e-08
7.704373e-08
8.00744e-08
7.622838e-08
2.72332e-05
2.478036e-05
2.074992e-05
5.211353e-06
2.293816e-05
2.17522e-05
1.933065e-06
1.997188e-06
1.942486e-06
1.991574e-06
2.57773e-05
2.338263e-05
2.489461e-05
2.247109e-05
2.169221e-05
2.049725e-05
2.074417e-05
1.945758e-05
1.354782e-05
2.651879e-05
9.983296e-06
2.928493e-05
1.065983e-05
1.533944e-05
1.175712e-05
1.462143e-05
4.167151e-05
4.575408e-05
4.003356e-05
3.856135e-05
2.598133e-05
3.930908e-05
2.740136e-05
3.730618e-05
1.357405e-05
3.004404e-05
1.915865e-05
3.029826e-05
1.283503e-05
1.598184e-05
9.43279e-06
1.801926e-05
3.564933e-05
3.17448e-05
3.051723e-05
2.582118e-05
2.702284e-05
3.379638e-05
2.622177e-05
3.028975e-05
1.443193e-05
2.121517e-05
1.338096e-05
2.065979e-05
3.908006e-05
3.048242e-05
3.133824e-05
2.548024e-05
4.568577e-05
4.558928e-05
4.066202e-05
4.004374e-05
2.534638e-05
2.411876e-05
2.33768e-05
2.418292e-05
4.276146e-05
3.9837e-05
3.850677e-05
3.741008e-05
2.59006e-05
2.296242e-05
2.229819e-05
2.172862e-05
3.609385e-05
3.623849e-05
3.176241e-05
3.25049e-05
2.312857e-05
2.54586e-05
2.325415e-05
2.538226e-05
3.63417e-05
3.613585e-05
3.235689e-05
3.207283e-05
3.23481e-05
3.947592e-05
2.649308e-05
2.928254e-05
2.116913e-05
2.582679e-05
1.694563e-05
1.967753e-05
1.031302e-05
1.76232e-05
9.211246e-06
1.381408e-05
2.391651e-05
2.113857e-05
1.890535e-05
1.840356e-05
2.288327e-05
2.587121e-05
1.791508e-05
2.094141e-05
1.399361e-05
1.569459e-05
1.107244e-05
1.200435e-05
8.595458e-06
1.121466e-05
8.236808e-06
9.675911e-06
1.582937e-05
1.572929e-05
1.280827e-05
1.255582e-05
1.440183e-05
1.625612e-05
1.132412e-05
1.263747e-05
1.414661e-05
2.084371e-05
1.277959e-05
1.047215e-05
2.024403e-05
2.091291e-05
1.831344e-05
1.873997e-05
2.756749e-05
2.79538e-05
2.236959e-05
2.315805e-05
2.218726e-05
2.32755e-05
1.930493e-05
2.723485e-05
2.646173e-05
2.27913e-05
2.256727e-05
1.542361e-05
1.529385e-05
1.203133e-05
1.704108e-05
1.766387e-05
1.354974e-05
1.472369e-05
1.793273e-05
1.831983e-05
1.530177e-05
1.542934e-05
2.032933e-05
1.972675e-05
1.100236e-05
1.323394e-05
2.54926e-05
2.812613e-05
2.684725e-05
3.004072e-05
3.818024e-05
3.78155e-05
3.71649e-05
3.739046e-05
3.136214e-05
3.444984e-05
3.28655e-05
3.492529e-05
3.835189e-05
3.931367e-05
3.783512e-05
3.836847e-05
2.840055e-05
3.083018e-05
2.716461e-05
2.82356e-05
3.572303e-05
3.543776e-05
3.138806e-05
3.092409e-05
3.23924e-05
3.323396e-05
2.8757e-05
2.883947e-05
3.492944e-05
3.454269e-05
3.017374e-05
2.94392e-05
4.279081e-05
4.267091e-05
2.944778e-05
2.782957e-05
3.704552e-05
3.633972e-05
3.700846e-05
4.037702e-05
3.872787e-05
3.879132e-05
3.347649e-05
3.333253e-05
2.85614e-05
2.791904e-05
3.380619e-05
3.304142e-05
2.842733e-05
2.733166e-05
3.285327e-05
3.202839e-05
2.718944e-05
2.620194e-05
3.189711e-05
3.073873e-05
2.604983e-05
2.474314e-05
4.067837e-05
2.513501e-05
2.204225e-05
2.387054e-05
2.404933e-05
2.537057e-05
2.465982e-05
2.169435e-05
2.098375e-05
2.394912e-05
2.360852e-05
2.007768e-05
1.960382e-05
2.376068e-05
2.305596e-05
2.007944e-05
1.930415e-05
1.816674e-05
1.798688e-05
1.504021e-05
1.443767e-05
1.541619e-05
1.021686e-05
1.746155e-05
1.692193e-05
1.360886e-05
1.284822e-05
1.879023e-05
1.72403e-05
1.541982e-05
1.414438e-05
2.31008e-05
2.247645e-05
1.905816e-05
1.844023e-05
2.211782e-05
2.126454e-05
1.845096e-05
1.762691e-05
2.181266e-05
2.108286e-05
1.77903e-05
1.70886e-05
2.021066e-05
1.922948e-05
1.67433e-05
1.587042e-05
1.615193e-05
1.540556e-05
1.201741e-05
1.126641e-05
1.453422e-05
1.373777e-05
1.049992e-05
9.823757e-06
1.518944e-05
1.303008e-05
1.216221e-05
1.032023e-05
1.116792e-05
9.864403e-06
7.897197e-06
6.650978e-06
7.210134e-06
4.382417e-06
4.550356e-06
2.979298e-06
5.206751e-06
4.287875e-06
2.745118e-06
2.058023e-06
2.889533e-06
1.960357e-06
1.388844e-06
1.059327e-06
3.462234e-06
3.818424e-06
2.525339e-06
2.90317e-06
5.084321e-06
6.472289e-06
3.917039e-06
4.849088e-06
1.7173e-06
2.005035e-06
1.037159e-06
1.258168e-06
2.576819e-06
3.167218e-06
1.641239e-06
1.929127e-06
2.923738e-06
3.784909e-06
2.696495e-06
3.432116e-06
3.255463e-06
1.708003e-06
2.805895e-06
1.547653e-06
8.253491e-06
1.037922e-05
2.319697e-06
2.994364e-06
2.025805e-06
2.637774e-06
8.173256e-06
1.033516e-05
8.167095e-06
1.750359e-06
2.306442e-06
1.509353e-06
2.242947e-06
1.481854e-06
1.149649e-06
7.628218e-07
1.291673e-06
9.606942e-07
4.278721e-07
2.79804e-07
6.426274e-07
2.051484e-07
7.073487e-07
5.611071e-07
2.016429e-07
1.620128e-07
5.952993e-07
4.019805e-07
4.881353e-07
2.33741e-07
2.748085e-09
2.342584e-08
8.706696e-10
4.358047e-09
8.330503e-09
6.20575e-09
3.220045e-09
4.464517e-08
2.986914e-08
2.709412e-08
2.224033e-08
1.055555e-07
1.979388e-07
5.514845e-07
6.594298e-07
1.88641e-07
2.500099e-07
3.437255e-07
1.161903e-07
7.930585e-07
8.615142e-07
2.964848e-07
3.002456e-07
9.814435e-09
1.512737e-08
2.103174e-08
3.490494e-06
3.619524e-06
2.084907e-06
2.019178e-06
8.468089e-07
7.753833e-07
2.718236e-07
2.322553e-07
6.845509e-07
6.011515e-07
5.180687e-07
6.713777e-06
7.918639e-06
2.955088e-06
3.678426e-06
5.450214e-06
5.671062e-06
3.665801e-06
3.115942e-06
8.623237e-06
8.403385e-06
4.033573e-06
3.950832e-06
5.535841e-06
5.609284e-06
2.813398e-06
3.07411e-06
1.010655e-06
1.070895e-06
3.832184e-07
4.115964e-07
1.233446e-06