/*--------------------------------*- C++ -*----------------------------------*\
| =========                 |                                                 |
| \\      /  F ield         | OpenFOAM: The Open Source CFD Toolbox           |
|  \\    /   O peration     | Version:  2206                                  |
|   \\  /    A nd           | Website:  www.openfoam.com                      |
|    \\/     M anipulation  |                                                 |
\*---------------------------------------------------------------------------*/
FoamFile
{
    version     2.0;
    format      ascii;
    arch        "LSB;label=32;scalar=64";
    class       volScalarField;
    location    "1500/fluid_0";
    object      omega;
}
// * * * * * * * * * * * * * * * * * * * * * * * * * * * * * * * * * * * * * //

dimensions      [0 0 -1 0 0 0 0];

internalField   nonuniform List<scalar> 
55970
(
59.0272
60.52228
57.23229
88.05718
88.86053
118.335
150.5195
181.1923
89.75509
121.9718
88.37938
120.3297
154.2353
184.6118
150.0315
180.0785
23304.1
21962.9
19986.54
18315.04
23864.63
17046.47
21318.89
15729.66
7614.318
13577.04
6670.74
23007.31
12032.82
19616.84
10571.57
19534.62
246.3392
209.633
234.7825
17533.42
262.3051
273.6161
17638.54
255.5499
269.6604
212.2311
237.2154
209.057
234.5409
258.8236
274.414
258.6212
277.3385
18.93977
4.459398
7.185897
18.14391
6.81664
2.490708
3.511398
2.306849
3.427274
2.347782
18.32694
6.989727
18.80288
7.402851
3.687586
2.632198
4.321451
3.365375
27.9845
38.69035
10.5701
15.18205
50.46515
63.041
20.3673
26.1776
3.030759
5.117053
7.377109
3.170412
4.296185
10.20634
13.53412
5.829552
7.68048
22.74336
37.56551
6.803301
11.92323
1.889369
1.726481
1.984013
1.844268
1.662678
1.631996
1.792912
1.764859
2.28947
2.161045
3.091678
3.026144
2.12799
2.108774
3.04074
3.041437
2.254535
2.844653
2.492332
3.158127
2.219462
2.672332
3.730883
4.871681
4.072102
5.188207
3.286574
4.010895
2.119985
2.489123
2.067407
2.393903
2.965196
3.505166
2.809352
3.248983
4.389583
7.016779
4.10303
6.198106
96.52125
42.60267
75.67592
88.45762
32.23521
38.17473
108.7336
119.8993
48.69677
55.52127
100.8973
112.4354
44.44589
50.83375
18.08212
21.45769
9.941026
12.05579
17.06437
20.65289
9.737827
11.93257
25.14509
29.02772
14.20429
16.49973
24.28827
28.05863
14.15542
16.44799
54.10526
71.31245
18.08943
24.77542
129.8724
138.2995
62.15666
69.17112
122.8499
131.9529
57.42877
63.90338
145.4553
151.2637
75.92339
82.0555
139.9975
146.6627
70.24841
76.20565
33.16721
37.32979
18.87853
21.54946
31.93223
35.94107
18.82712
21.36279
41.75746
46.50571
24.45765
28.14281
40.03011
44.30825
24.18153
27.5243
87.86076
102.9883
31.93403
39.66566
6.111024
7.384595
4.265156
5.044038
6.452008
7.824922
4.842724
5.741548
8.683501
10.04049
5.81949
6.662256
9.205136
10.66749
6.675988
7.687192
3.368149
3.855532
3.242109
4.114537
4.767112
3.751081
4.283448
4.3712
4.987976
3.64619
4.131605
5.470899
6.268168
4.883717
5.560601
10.17074
13.58696
8.526408
11.02
11.4977
13.3122
7.731849
9.20402
12.23734
14.04635
8.864783
10.34387
15.86439
19.86906
11.54131
16.85121
16.32787
19.5602
12.42301
16.18534
5.768929
6.964087
4.791451
5.986856
7.232139
8.496651
6.395625
7.588912
9.600306
19.10226
9.860251
28.43735
10.54697
15.86989
10.04471
19.31305
17.42944
22.46318
14.06454
19.61821
15714.37
15939.94
19259.92
12215.34
6019.613
10976.4
5313.561
17260.57
9421.512
3807.894
2935.744
3088.156
2114.419
4810.941
2985.27
4108.338
2243.212
2953.314
3159.711
1984.722
2049.348
2858.678
3060.456
1972.071
2018.267
2698.316
1692.885
2360.935
1411.269
3613.94
1853.037
1514.562
1517.76
1226.281
1208.728
1524.085
1499.205
8060.081
4751.052
7536.916
4424.665
3491.423
3058.287
3059.29
2683.632
16049.06
330.7135
328.8121
265.1577
261.5608
14277.91
14781.76
13110.44
10207.58
5087.237
9588.165
4873.725
2198.808
1214.126
2066.926
1188.488
284.7203
287.8056
284.5001
279.6121
273.4918
301.023
299.1098
317.6832
317.9592
296.1114
291.5216
317.4832
315.9545
287.4359
315.6047
314.7149
156.0484
159.2727
87.61216
93.12428
152.2279
156.3292
81.95845
87.5029
161.7458
165.3002
100.6728
117.6371
159.5921
162.3698
93.73588
103.7561
51.84449
947.2027
33.85959
1095.525
49.00294
54.78824
31.98768
39.82665
632.2924
29366.18
851.8652
571.8043
64.23722
89.6651
60.2837
137.3686
116.21
128.2195
48.92244
69.40967
176.3793
213.3741
171.4631
312.2678
167.8687
184.0195
128.1523
197.772
309.266
589.6497
614.1746
928.1309
168.7192
347.424
331.9605
608.9449
825.2325
943.7709
1080.391
1108.085
563.6697
735.6161
819.2572
927.592
147.5779
172.9135
388.1414
28.67457
1067.89
35.9738
122.6886
25.27014
40.3391
25.65453
61.9211
875.282
265.3387
452.9275
984.6436
96.50042
285.7917
206.8299
538.2878
65.82749
296.9599
137.428
576.935
35.42883
124.8934
60.33357
248.1712
850.0611
1377.896
1289.172
1687.938
403.1662
816.3463
658.716
1080.168
34.36177
117.997
52.35848
276.3447
996.162
1216.716
1332.423
1420.971
592.8158
875.1257
885.425
1097.132
1258.652
1216.404
1374.676
1292.186
1015.645
1055.374
1159.593
1144.677
1577.394
1556.591
1744.377
1643.026
1118.576
1246.731
1297.888
1348.637
1456.892
1341.915
1506.302
1368.24
1249.932
1199.199
1306.609
1230.003
384.9388
615.6878
589.5001
732.9034
969.3807
1074.807
1024.594
819.2342
845.2219
951.6872
934.5027
548.682
1150.387
1076.474
1200.82
1102.727
1035.832
992.0708
1094.309
1031.574
1225.008
1115.062
1237.895
1121.814
1129.483
1053.399
1143.855
1054.556
698.547
743.2162
60.29785
70.36388
103.077
89.1595
121.781
101.1447
139.6705
153.1508
187.6673
179.1174
217.6689
150.7057
210.6139
262.2367
312.9347
217.6881
245.1088
251.6139
285.6588
271.9828
295.3306
313.3879
337.6735
358.9637
399.6953
432.225
457.4525
315.5133
330.367
358.2975
375.7246
341.2244
348.8479
389.0491
399.3148
476.1342
490.6464
499.9226
505.014
19.95871
9.033281
28.2926
17.58686
6.502234
5.663084
15.16054
14.22307
61.71389
51.91677
46.32915
42.9326
33.28729
54.78474
18.82778
30.93519
92.81148
126.3232
76.09489
106.6901
162.9607
201.1607
139.3384
168.5884
70.66425
102.0612
68.21396
94.80257
129.5045
157.2378
122.6504
147.9046
5.539771
5.686587
14.29737
15.30524
5.86321
5.906844
16.18622
16.2213
45.86305
49.62287
56.58195
54.94768
17.23888
27.14057
18.17629
27.76955
68.07052
96.14272
74.3136
100.4666
121.5643
147.3608
128.3528
152.504
80.63662
108.7794
80.53908
105.7174
133.8198
158.4944
132.7287
157.3354
78.92202
103.1138
44.17245
56.85011
235.6554
268.0553
197.1415
222.1047
293.1669
314.788
243.7636
259.9291
180.3921
202.1634
171.6366
191.4399
220.0319
234.2312
208.7656
221.3032
124.945
143.8712
67.90028
78.29954
332.2189
345.7378
273.2708
283.6977
355.2523
361.0978
289.8542
294.6858
244.7114
251.8443
230.2629
235.8014
256.2278
258.8798
239.588
241.7369
37.50741
46.6512
37.52283
45.53079
168.6935
188.4862
174.2699
192.7971
204.1896
216.848
207.8383
218.8899
180.4188
198.6029
179.9302
198.7913
212.3996
222.6386
213.2067
223.4541
54.20835
60.98901
51.95075
57.62717
224.7581
229.5514
225.5466
229.421
232.18
234.0158
231.803
232.635
228.0281
231.4216
228.7022
231.7336
232.7244
232.9173
232.9686
232.781
353.9564
357.7291
407.7996
413.4114
361.1905
362.5139
416.075
417.8764
507.1747
507.664
505.701
503.2898
363.5761
364.2304
419.1363
419.3749
499.8636
496.7719
493.3934
160.1439
173.7387
87.96806
98.8679
364.071
366.2962
298.1008
300.1256
366.2305
364.5619
300.4101
299.1837
260.0722
259.9834
242.1872
241.4546
258.1993
255.8526
239.209
236.2798
186.5125
125.0684
190.7997
361.5863
358.3825
297.5682
295.2472
354.9409
294.0325
293.4662
254.0147
252.1503
234.8165
233.4797
256.167
258.6569
238.9575
243.9297
68.01186
86.66067
66.60443
108.2302
233.6807
231.6315
231.1857
228.9223
229.1182
226.2956
226.5794
223.0853
231.0796
228.4125
231.4486
229.2695
227.4558
226.4516
228.4298
228.3397
152.8205
259.8679
202.4879
294.2897
228.3011
229.2686
225.6794
228.6142
241.0005
250.6033
241.5657
252.4525
232.4076
237.7154
236.2917
243.2949
249.9493
260.5431
255.729
266.7379
280.7635
270.8999
280.983
258.9451
271.2964
290.3337
349.786
400.8934
349.4106
371.2726
268.0154
282.669
270.5239
285.1559
299.1127
313.1353
300.9648
314.6036
273.3105
285.3657
279.822
294.7369
298.3493
313.1121
312.201
330.9784
378.8956
328.1202
343.3533
349.9744
368.8167
85746.52
42986.95
62570.32
39655.66
52182.2
34731.83
53596.8
32953.04
47071.37
69511.45
71095.35
81388.77
67650.68
70081.95
51694.09
52160.45
50061.98
40044.51
36273.06
52576.33
50697.85
41587.71
37889.25
77890.77
66151.88
69707.52
73769.2
64015.19
68928.81
69804.3
52663.81
46098.87
71124.79
68106.79
64516.07
48106.98
66058.56
46210.18
61251.42
60712.73
57018.48
80414.34
76072.48
70548.33
81714.69
62141.95
68355.76
67620.08
79939.29
67641.86
69594.9
69681.77
1.642954
9038.19
19794.71
25845.16
1730.047
36600.36
44354.43
33682.62
38262.05
31232.7
41650.82
37030.31
39200.24
27581.92
31658.13
20961.89
42074.83
31880.88
34835.56
24494.22
30816.74
33309.87
28299.22
29421.39
33081.38
26792.66
17170.84
23440.22
14952.36
29810.84
20257.87
34898.28
34623.51
34144.37
33585.02
34427.57
33207.79
33817.09
32804.73
33140.34
34147.93
33693.23
32837.53
32879.8
32957.61
32645.17
33379.3
33001.41
34070.62
9766.941
9569.276
10060.12
9436.429
9797.802
10274.27
9473.65
9952.533
5549.031
4950.285
17846.67
10807.24
9497.68
18561.28
11875.02
9632.716
9194.295
9550.34
9016.798
9208.188
6453.526
4804.684
5329.098
9770.495
5021.536
33469.48
32628.31
34161.43
32605.04
32453.23
33176.08
32090.22
32679.91
49988.49
34849.72
32681.97
49578.69
35367.26
32768.83
31871.46
32275.83
31635.37
31828.77
33550.95
33185.93
33598.74
32822.45
33435.56
32448.27
33153.96
33824.03
49663.28
36173.76
32997.8
49704.25
48620.29
31576.36
31646.38
32153.17
33021.68
33642.06
19921.39
16972.34
13293.58
9929.681
21608.16
17203.49
15036.17
10414.16
8944.306
9029.201
16398.22
8949.116
8890.779
10404.51
6958.936
8767.268
5470.832
11889.86
7461.419
5814.937
5606.44
4285.827
3958.612
5874.93
5540.347
4393.024
9502.915
9340.825
5783.444
5972.156
4063.324
4397.562
5702.307
4055.884
3693.556
3565.52
3051.966
6015.594
4937.547
5684.992
4380.813
3378.871
3249.334
2524.849
2269.723
3928.412
3315.01
3188.187
2487.163
4259.814
2263.348
10785.14
8097.69
10359.52
7700.337
19430.62
14548.22
17066.5
13118.44
5540.508
3799.84
4957.018
3188.03
9115.531
5012.456
8231.557
4336.789
10202.85
4364.898
3307.432
3479.062
2138.93
2169.822
3155.193
3264.978
2126.534
2095.803
2234.767
2295.299
2148.912
2220.254
1472.094
1442.77
3114.173
3073.344
2232.389
2057.872
3291.806
2965.43
2484.038
2056.514
3236.177
2074.786
2153.618
3082.035
3293.314
2023.715
2104.329
1645.471
1398.38
3748.783
1866.388
3539.663
1696.629
8569.169
3780.043
7679.632
3632.166
1030.575
918.4457
813.6312
666.7514
1261.559
930.8789
1094.158
697.8826
25145.92
66581.29
50488.14
73110.96
52982.1
73008.55
56337.61
81525.35
60087.07
36597.35
80429.47
63281.7
68984.48
72484.44
46648.84
34.09297
1089.137
18144.88
133.4658
4051.802
2912.803
15148.19
28120.22
17634.44
26783.98
24020.83
33421.31
14799.79
21696.03
21195.3
28202.18
35762.86
37380.15
42840.84
42190.56
30975.55
37435.18
38630.63
44136.45
9712.08
19466.13
12486.39
17252.63
19247.84
23786.05
11158.01
13988.43
18362.37
20679.03
24700.49
32792.56
32202.76
40250.16
19309.15
25835.44
26574.81
33248.7
27049.34
19761.02
31512.35
25112.7
33856.79
26364.64
36807.74
31664.59
41248.89
34302.77
21360.06
28325.3
29352.1
38131.15
36901.24
45001.43
41767.36
32387.03
36383.87
39921.21
43591.06
35011.1
38425.96
50001.54
51007.39
34240.98
36766.5
50475.41
43338.9
47129.39
54005.62
56625.41
40926.53
45046.64
52534.44
55612.01
70271.51
70874.32
33715.52
35389.21
50632.57
33701.85
34592.35
38682.19
42635.01
51500.59
54084.71
37098.41
40485.67
51707.57
53098.63
53414.1
48010.56
68129.97
62973.5
81163.81
71619.09
70376.75
66951.36
78581.56
55097.77
51710.39
52770.49
71215.39
69736.5
71649.79
65198.99
58939.4
75022.29
65402.65
69436.58
64624.35
82663.92
74057.16
82276.74
65728.53
51484.6
72372.62
53967.59
76647.7
61586
66570.14
71747.29
87332.97
72970.52
85537.07
33846.52
34036.71
34161.24
34172.63
35670.96
38238.17
52714.49
34987.68
36805.6
34559.32
34413.15
34876.65
34671.81
34763.26
35537.47
35056.74
35437.05
47436.09
52657.22
71632.18
68389.5
81677.13
71763.52
47976.85
36265.33
27640.61
38768.72
46341.56
36950.97
52388.95
21511.28
17458.03
54303.19
47473.06
52391.48
5201.961
5198.986
10155.54
9771.825
9667.777
10088.69
9769.069
5283.924
10443.48
10044.04
10504.89
35113.53
35406.6
5660.25
11064.52
6761.9
11119.24
10251.02
11687.54
17913.2
18886.41
9935.231
10552.86
17840.56
18166.3
14729.77
19181
21632.41
26510.72
12157.94
14745.75
19435.63
22158.1
5637.116
7161.734
9894.057
10057.75
10233.67
10201.38
10807.63
12097.13
10577.44
11211.66
17724.94
24333
29464.38
31719.74
36913.76
18317.24
22086.3
25719.25
29485.23
9710.811
12766.51
14077.18
16408.85
24451.88
12272.09
13456.29
14887.14
16251.73
34948.44
34859.04
35240.82
35126.92
34992.25
35418.18
35346.46
35554.45
35276.08
35357.15
35404.69
35356.69
35519.81
35715.16
35615.53
35792.84
36577.1
37215.85
36269.65
36525
36102.66
36386.79
36323.84
36673.09
35780.22
35746.23
35767.07
35871.14
36302.68
36756.82
5504.731
5846.083
10730.07
10611.37
11270.92
11084.78
10732.84
11011.25
11087.19
11249.69
5750.117
5680.801
11575.66
11508.31
11534.77
11848.23
11763.12
6618.422
7509.282
11584.18
12109.76
11545.28
11846.2
12745.36
13445.94
12211.52
12496.96
5814.847
6032.153
11656.59
11793.54
11681.16
11849.82
11997.8
12041.25
11987.56
11971.37
197.8892
205.2406
478.097
450.3468
191.5983
195.0478
481.0283
258.7939
837.0229
467.2445
946.9852
209.2159
319.8415
457.8505
508.3923
756.023
725.3269
1025.391
1002.88
771.4826
743.365
1034.39
696.9852
673.1494
978.1925
950.4928
715.3301
689.931
1005.521
975.6706
2401.789
2445.845
2468.853
830.4156
788.141
786.5891
751.194
719.437
1012.894
990.2379
756.2056
728.8659
1027.896
660.132
693.9497
923.7396
935.9912
669.9842
665.9917
944.8019
924.7991
950.6534
1501.405
1146.202
1676.459
738.7354
876.6599
948.8411
1048.53
1520.528
1452.539
2356.89
2307.211
2401.648
2361.417
2246.855
2196.02
2320.052
2280.591
2432.912
2406.952
2379.609
2347.661
2349.124
1584.56
2050.942
2192.853
2245.363
3393.753
3328.695
2248.216
2230.829
3539.675
2404.837
2571.427
3356.086
3433.938
2276.751
2326.778
3456.454
3438.26
1471.257
1508.916
2314.673
2286.442
2353.426
2357.835
2280.919
2287.271
2363.666
2371.374
691.918
671.9657
966.7792
945.7397
703.6601
682.5196
1001.157
979.9181
670.9796
687.7383
930.6415
930.6172
669.5068
662.0251
962.3959
948.9237
2415.032
2419.988
2428.245
2429.974
2440.17
2473.849
2520.709
200.2594
201.7482
210.3543
213.5124
203.2937
215.1385
472.3798
214.796
215.5777
769.7106
750.65
732.699
714.6662
697.093
1028.515
716.6167
680.8884
667.9009
1005.434
987.7811
701.1424
687.2472
1032.532
750.291
733.498
716.3751
5913.482
5959.663
6230.404
12267.64
12638.77
12175.25
12466.06
1.619006
1.752332
1.745595
1.75444
1.812916
2.094198
2.075543
3.000897
2.964597
2.064271
2.108441
2.931191
2.958601
2.036085
2.337907
2.024266
2.325892
2.720568
3.120818
2.706322
3.097079
2.035926
2.347512
2.142128
2.527466
2.75008
3.176236
3.03167
3.595419
3.977252
5.970425
4.01401
6.112274
2.125736
2.776121
2.006476
2.658576
4.860701
12.95668
2.275757
2.942912
3.058181
3.663313
5.212614
14.20807
5.976342
15.38994
3.819734
2.460049
3.032309
3.607649
4.836194
3.791865
4.686993
6.426268
8.214292
7.221321
10.21184
20.21923
28.7485
13.64169
17.51
37.762
46.88996
5.218603
8.263493
17.30668
26.36409
113.6826
120.2279
128.5133
141.1771
163.1949
310.7713
175.9755
328.7712
1031.97
2619.585
1088.111
2959.929
3.575579
4.063056
3.550545
4.038026
3.317021
3.759365
3.353045
3.825566
4.61482
5.250794
4.596543
5.247323
4.678193
3.680754
4.224837
4.262934
5.000463
3.840629
4.482873
5.506983
6.485388
4.860935
5.618172
5.850001
6.862929
8.155081
10.57609
8.475026
11.2016
4.415472
5.963202
4.631734
7.21907
6.077456
7.446223
6.130143
7.868694
13.02195
54.74881
19.10455
102.2084
11.32782
29.03385
13.8924
44.077
5.625435
10.03962
8.301339
15.17444
6.700326
9.111166
8.338808
11.85784
30.29754
176.306
46.90037
309.399
18.08344
66.58315
24.57404
103.9327
13.86819
23.21288
15.27508
30.5888
5.747731
6.94803
10.17075
12.22396
11.81315
22.28216
8.318246
9.884086
14.45853
16.84787
21.2321
25.08397
55.25201
62.65258
45.20673
92.82237
28.88309
32.55227
69.37804
75.09526
11.70576
15.55127
34.91893
43.25044
14.43186
23.00832
26.06314
37.41963
12.09619
16.94197
20.03439
26.35081
65.43241
444.7455
107.3068
658.9404
34.03913
142.383
49.07053
193.3674
49.11479
60.33686
96.85061
106.3407
36.85213
43.91946
80.58657
87.51439
134.1257
737.9452
167.55
790.4532
67.31427
211.1817
108.1829
250.1635
21.06938
42.54114
52.17084
73.29164
43.35419
51.48894
53.60504
67.46857
92.93384
119.0895
141.0854
75.71139
102.3111
78.99102
104.4441
126.8872
148.9879
130.7937
153.3626
456.002
431.2028
506.9796
509.9636
857.0111
817.2615
783.2832
753.3697
1066.851
201.4224
195.1108
234.4373
244.6818
193.1354
199.6452
252.3921
263.3921
408.119
390.8724
507.1913
502.1258
380.1332
377.869
496.1887
493.2304
227.3951
366.5134
294.0889
453.981
1069.657
2946.716
1272.4
3241.556
398.4594
547.2392
511.13
677.8076
3329.192
1296.468
3171.121
1564.083
3414.039
1455.634
1368.324
1663.212
1299.591
1243.688
1619.747
1566.22
2308.164
3296.215
2240.689
2146.438
3371.28
727.5423
703.1485
1034.506
1003.06
953.0592
922.5524
679.8385
661.4008
970.1607
935.4557
1486.572
2386.294
2375.822
2298.982
2204.919
2308.86
2239.43
2359.474
2324.849
2286.224
2343.031
158.7064
170.6317
193.801
512.5641
180.5225
187.2326
829.2646
790.551
834.6761
800.1671
166.5139
179.294
172.2976
186.1136
189.0526
196.508
196.7701
205.2862
321.2054
1013.845
550.9836
1425.27
120.8357
453.3205
199.0818
651.9381
1685.182
1918.815
1994.26
2092.12
926.1984
1286.725
1137.909
1425.629
829.3215
1812.86
1214.635
2216.253
298.1814
835.1536
446.4034
1043.499
2247.88
2207.163
2443.847
2266.264
1296.001
1499.773
1425.762
1524.829
114.9678
433.2691
182.769
464.1158
1862.607
1701.932
1940.718
1735.908
1420.469
1410.035
1487.193
1430.448
1533.255
1375.26
1544.032
1366.8
1335.932
1237.862
1324.327
1202.398
1983.546
1740.431
1977.341
1691.73
1501.902
1404.579
1455.469
1290.685
1515.338
1302.839
1422.54
1190.835
1242.116
1079.715
1108.627
946.5484
664.3471
703.667
550.1604
540.2871
1697.903
2523.881
1941.8
2689.803
626.5526
1204.507
664.8678
1152.284
2561.914
2266.905
2584.803
2169.997
1467.829
1446.892
1281.411
1174.492
2167.769
2804.663
2333.902
2771.158
676.3441
1053.11
652.2508
823.813
2510.136
1990.967
2243.824
1717.436
1045.103
934.4959
816.6184
737.4447
207.827
343.6263
152.1164
222.1379
1902.04
1559.726
1741.568
1380.344
1270.112
1075.762
1013.754
857.5755
1267.167
1033.836
1097.563
896.0167
750.8817
725.1047
623.6092
1538.876
1190.518
1306.423
796.4454
670.1764
641.4348
553.0226
570.3169
492.3875
484.5238
435.5033
388.9044
389.2639
261.5937
278.1813
1234.418
1107.423
1200.643
1053.092
1134.361
1024.559
1066.662
942.038
989.7025
887.3328
926.1452
821.2198
914.7871
818.7703
828.6064
738.1033
1115.969
960.406
1002.576
855.7449
927.0033
801.7338
806.7519
700.7709
833.2977
734.2213
742.9309
658.6472
697.2049
619.9348
614.9575
554.5034
650.4292
583.8138
499.3217
456.6015
798.6285
734.7904
663.9921
732.4711
659.7332
601.4305
656.0956
596.2719
592.6981
542.1381
557.5038
513.0242
504.872
470.4477
547.8913
509.7139
502.0978
469.8018
476.4205
450.0959
441.1744
420.55
523.0602
422.7517
398.9151
858.6953
730.8058
639.1375
558.042
544.5572
487.1147
637.5657
568.6785
564.3942
510.9252
498.3152
456.2172
443.8013
413.7629
438.6829
400.0967
405.0589
384.448
462.8329
473.4248
375.7069
357.757
371.934
362.351
374.2739
358.9953
288.3392
295.8116
517.1099
478.0978
470.5726
439.4711
424.5118
401.7151
390.5034
373.8111
447.7795
423.8596
415.7344
396.5658
383.5528
369.9027
360.1272
349.676
346.0063
336.6457
356.2127
351.1103
330.078
324.3815
347.6585
344.1357
347.9478
340.3219
301.8248
306.4259
4890.442
5844.212
4900.382
5831.51
5775.519
5044.103
5727.788
4960.923
5055.178
5972.328
5019.987
5870.814
5754.533
4763.077
5510.842
4446.376
4062.005
3188.652
3866.665
2982.135
2433.055
1967.768
2272.658
1850.626
3608.277
2744.757
3375.48
2610.81
2106.095
1728.408
2057.385
1737.173
14236.55
13818.92
15408.96
14926.15
14247.8
14819.01
15536.49
16210.07
12942.18
12023.09
16783.39
16233.95
18418.82
17771.37
13592.69
12609.43
14297.8
20432.07
19628.86
22815.67
10179.57
10609.82
11692.15
11936.97
5328.724
6040.444
5490.208
5856.348
8477.397
5608.928
5376.501
4235.198
4851.65
3857.8
13702.07
19351.38
20212.92
22353.84
12358.88
13222.76
12932.74
5732.5
6670.926
6881.638
6819.431
3917.326
3958.934
4300.636
4369.127
4034.152
3169.625
3283.8
2616.408
3115.969
2655.659
2650.877
2924.403
2186.226
1912.372
2373.369
2197.812
4574.276
4292.314
4014.116
1454.468
1303.471
1499.332
1360.822
1732.639
1609.76
2080.552
1984.752
1516.183
1448.097
1392.772
2067.406
2310.216
1839.697
1805.377
538.6605
627.532
585.9133
615.1097
1863.848
1432.967
1506.02
1249.999
645.0868
611.8632
626.1615
631.1561
2200.601
2529.399
2237.713
2323.028
1089.448
1185.334
1168.97
1211.881
2417.59
2180.762
2198.76
2022.621
1199.819
1175.289
1233.381
1246.41
2382.74
2335.667
2701.444
2758.309
3503.526
3567.987
2395.332
2446.478
3455.728
3507.706
2791.788
2814.017
3658.018
3799.351
2485.992
2532.724
3591.86
3726.185
1548.94
1569.345
2302.915
2327.356
3782.19
3787.588
2383.911
2401.328
2366.254
2423.74
3847.44
2435.142
2486.911
2246.072
2203.381
2861.419
2944.85
2602.046
2718.082
3056.487
2851.938
3007.095
1610.398
1693.323
2528.288
2654.677
2585.479
2697.811
2786.484
2918.402
2805.333
2909.103
718.4112
741.3621
939.4473
951.689
662.7958
666.4898
938.7554
936.5048
761.482
777.1526
969.3176
1001.031
674.0261
683.6567
943.1565
968.0609
1503.649
1500.138
2452.262
2478.159
2486.047
2512.332
2514.622
2562.061
2540.026
2579.412
2520.129
2528.392
2558
2587.468
1531.372
1602.98
2626.772
2711.274
2635.409
2709.119
2800.959
2892.273
1923.426
1701.398
1878.599
1788.981
1129.184
1096.065
1269.929
1306.367
1537.776
1431.906
1738.057
1722.619
1076.737
1075.823
1356.093
1417.582
1806.89
3048.385
3204.3
3027.738
3133.781
3310.575
3378.777
3754.142
793.9523
815.1767
1049.39
1111.178
700.3161
724.5701
1012.547
1072.512
839.5031
870.9637
1188.013
1265.341
753.5069
789.5805
1138.457
237.3507
258.3053
458.64
455.3965
221.2003
228.0209
281.2478
298.2231
460.6604
478.0223
241.0927
253.8867
658.3288
652.9209
974.938
970.4132
675.794
667.6973
1015.749
652.2354
656.3038
974.3308
997.1075
664.8945
667.7281
703.6691
694.1612
691.1808
694.5102
670.2042
690.8402
678.6858
697.7292
720.4965
758.2318
744.0272
786.2523
701.52
710.231
1116.219
59.27434
560.5327
520.0845
75.61738
494.9451
482.8624
1363.501
1324.968
1730.853
1078.727
46.3276
3.168648
257.6626
35374.47
900.8987
59.19279
828.0272
196.9393
311.3002
325.1757
268.1186
284.3874
342.3605
360.2786
303.7063
324.0805
803.599
89.71824
832.4194
6016.045
6213.665
12414.76
479.5768
479.7908
576.2736
478.1997
476.0937
376.511
392.2031
343.0813
360.9967
403.9888
414.1636
376.2019
388.8061
473.4125
470.7554
466.3417
461.7263
421.5887
427.3221
398.9039
408.0472
431.1446
433.557
415.0834
418.9046
391.5289
319.9333
341.3481
338.1355
309.1138
479.4724
457.5003
453.2102
434.3835
434.3035
421.3717
423.2935
433.4118
424.113
5.800207
5.726138
15.52319
15.60394
5.564731
5.598796
15.15035
15.14119
48.20915
50.96004
51.86498
52.76749
17.78653
27.68233
17.70256
27.69386
74.84127
106.4648
77.84605
107.2448
134.4315
160.2083
136.9861
162.2415
76.31865
106.6672
79.86495
109.5805
135.468
159.6896
134.9762
160.6018
5.658476
6.113098
15.56333
15.5365
8.528987
18.61165
17.97719
28.06446
54.23793
54.28158
59.49869
71.44685
18.88876
29.82151
31.45474
48.45341
79.74318
108.1507
81.38149
112.2013
136.3362
162.8393
137.5866
163.6373
89.13759
119.0708
104.1676
140.7319
146.9478
174.2429
176.3123
207.7158
37.60024
45.70482
37.9405
46.64455
182.1872
201.8459
183.4363
203.0694
216.2382
226.649
218.6656
229.616
182.2027
202.1823
184.9274
204.0299
218.9424
231.453
219.235
231.8863
52.12907
58.26513
53.55695
60.91891
232.1176
234.3792
235.9002
238.8763
234.9416
235.0952
239.6863
240.0472
239.3478
243.8777
241.2568
246.988
245.8363
246.9573
249.2271
250.915
41.11854
51.15077
64.78267
79.38102
185.8764
203.3118
186.5023
205.0604
218.5657
232.145
221.8945
236.2431
197.7351
219.4909
234.1872
258.355
237.1924
251.7429
275.7913
291.1335
59.26377
68.08404
91.77154
104.3027
242.5616
250.2941
247.082
256.0324
255.7369
260.8581
264.0839
271.703
263.5458
274.55
304.7381
315.0349
283.8342
293.3267
324.9405
335.3041
59.71239
67.94264
106.9289
85.50769
114.2017
100.7156
137.184
140.0633
165.7963
167.8932
197.7185
158.8306
215.5561
266.0228
307.9576
185.8277
202.5721
223.6967
243.4665
212.9177
222.3299
257.1754
267.1235
344.0171
368.492
387.2509
400.776
229.0888
233.9284
274.885
281.2933
237.3926
239.7311
286.224
290.0721
410.0767
417.9305
424.9403
431.5968
74.5543
131.3512
82.73427
125.0022
234.3358
233.2831
239.7708
239.0149
235.2485
236.5641
241.7841
245.0005
248.2321
249.8689
253.8232
258.2154
254.3744
262.8422
269.1011
282.5426
202.2535
250.1362
169.0995
215.6293
243.8883
251.723
253.3365
265.4643
265.4857
281.5959
283.8163
305.7515
277.9617
294.3274
302.5466
325.3685
314.4844
339.8087
349.9727
377.3854
89.36399
121.6075
123.3477
154.5772
268.3125
277.0386
281.5127
293.4285
290.4654
307.9408
310.0991
329.9552
305.7759
319.9656
347.7014
362.2508
339.6366
362.9154
381.8804
403.3238
166.1499
214.6522
195.4026
238.9874
331.9935
357.3708
356.295
383.511
383.1518
410.8081
415.3761
444.3202
388.2353
416.2181
428.7187
452.3288
444.8521
470.2319
476.4036
499.7866
291.4706
320.7564
260.9419
301.4575
301.5305
322.4357
329.6308
355.2467
345.3607
367.9549
382.8397
410.0221
368.1325
396.5485
408.7667
436.6329
424.4562
450.2116
462.9992
486.5783
342.0504
358.9898
335.5375
362.4508
390.2297
411.9004
435.3685
458.7999
432.8898
450.1782
480.9544
500.9825
476.3265
497.5671
511.3471
530.5758
516.4727
535.5148
546.3599
560.0836
260.8486
301.2415
278.9253
311.2717
438.9925
462.655
466.5168
488.4398
486.2794
508.0129
510.4769
528.8536
492.9553
510.0342
521.1434
536.6627
524.1167
537.6774
547.6109
554.6022
333.6214
357.7474
335.3337
351.1895
527.3453
543.0218
540.5968
551.839
555.5961
566.7847
561.357
567.1655
547.2599
554.5594
560.3444
563.9459
560.7386
561.8591
564.1578
561.1815
242.4019
246.1411
293.8714
299.3055
254.2948
264.8996
309.6521
322.5432
438.9109
448.2387
460.6047
477.0369
279.2174
294.1877
339.6797
357.4704
312.2478
330.4896
377.427
395.9025
493.5179
512.1168
530.4208
547.4806
349.0697
366.6854
414.2898
430.8546
382.6643
395.7308
444.9479
455.7045
561.916
573.698
582.4775
587.4064
406.7078
415.5793
464.4643
470.1945
421.6451
425.9752
473.7272
475.3947
590.526
590.2069
589.5074
585.5426
371.9293
382.677
465.9773
482.236
515.9157
530.3739
549.2202
562.6985
571.1528
582.3925
588.2988
374.0683
384.0568
360.2674
363.8698
573.9821
578.9803
569.8731
571.4191
582.8435
581.6844
570.0635
565.8292
560.9193
559.1018
558.2564
554.4424
554.9452
548.9745
548.3066
540.085
388.488
363.2392
579.1557
575.0047
561.2564
555.4398
542.3094
533.0532
531.3387
522.758
524.3474
513.8336
428.2216
429.3586
474.93
473.2743
429.0804
428.218
470.3948
467.1646
580.5653
575.2101
568.055
560.5507
426.3936
462.9668
458.7316
552.7102
544.1819
330.1442
331.3336
272.9854
268.6054
281.3244
285.9773
279.247
285.2509
287.2811
288.4499
289.1493
919.161
991.3766
950.6567
990.2484
949.3397
890.9537
867.0799
846.1286
827.2605
919.0789
893.1501
919.5888
895.709
872.2542
854.3846
879.3424
864.4783
598.5131
580.4105
285.8972
293.6504
614.3255
292.6292
303.4325
560.9625
541.5808
298.6308
300.7798
592.9239
572.8802
310.908
315.3498
16498.78
20962.62
20408.03
23225.81
22541.98
28192.86
27037.6
13859.87
1300.042
1278.341
1134.039
1431.729
448668.6
1271.271
745.0234
29435.65
2098.013
52305.06
920.1675
766.8724
3398.308
1059.105
421.8215
392.898
3738.393
339.0855
131871
793.4448
38.43707
650.3632
3.746837
11.04501
1972.605
3.944026
1301.086
523.7383
62771.01
857.5055
126.8688
723.7413
1803.437
1264.635
1.779297
1664.294
7061.437
2024.622
2088.184
561.0213
1696.991
948.6713
1943.485
8309.42
3.896956
650.5144
2.755079
692.8477
9856.117
9.284824
8676.45
54.89227
410.3223
2940.147
1102.831
455606.5
1324.894
918.4093
628.4747
1014.135
57.96095
346070.6
1719.761
595.2458
2225.485
1991.778
4060.139
62.71073
14.5811
2163.284
3.287694
1250.766
91356.56
104831.5
21.25815
149598.5
1562.692
3.911601
122495.3
94478.81
3878.851
675.989
772.1268
1.823193
80491.46
31.8517
76626.42
839.7064
21.10155
824.1403
13.56018
86714.97
985.0434
4561.632
131811.2
104084
93009.15
117892.2
899.4195
1.477933
17.15022
9.569655
184864.6
788.4714
89713.67
1634.057
3.713543
793.202
20.56458
967.9822
31065.31
73272.44
179375.3
52.81261
470.7516
959.7455
860.7337
69799.64
867.767
336.5055
83813.93
86495.27
27.59032
16.08483
1584.919
1601.661
84644.21
1508.713
64289.88
3421.328
1661.416
89518.58
599.3387
95145.89
92.2709
70293.74
458.4303
10.09543
115111.7
43744.01
4172.336
1470.935
115907.2
141739.8
3786.356
620.7559
711.2293
42.74829
2575.28
32.13758
3445.191
682.0157
223.7753
11575.34
1742.966
414.6256
748.9266
490.6712
3841.854
16583.63
4240.449
40804.1
9715.64
1596.125
3.21
1020.557
4.257601
781.9621
21026.96
8568.865
43311.58
14615.54
997.5351
2793.583
123462
12076.5
2803.536
2869.267
5390.993
1474.117
4895.911
4634.841
3990.74
946.0534
1569.477
5061.185
6303.826
24.86416
21.8498
217951.8
116774.5
4.822474
599.9924
197.4314
577.7907
2736.598
21029.24
758.6447
533.5438
2640.37
674.8142
2651.672
2641.303
86199.63
1194.558
3588.879
1832.729
92308.29
1.668069
5672.747
5167.288
2305.536
8.977217
18287.62
6315.456
23.00663
3961.554
1015.836
569.9368
78.53191
89857.77
1153.465
1543.986
575.2955
10189.05
888.0472
741.2646
1320.696
226006.9
1893.264
1159.73
1397.737
1175.506
58650.32
1715.327
30952.29
122078.6
1078.325
11.17009
704.006
568.7894
2001.289
959.9982
1262.536
1308.301
1227.341
741.02
1517.157
1046.541
1020.345
1498.121
33.49395
3291.706
620.9694
2819.977
19875.32
123101.1
571.2115
614.8408
423.0727
2244.056
1097.527
1461.622
1229.287
10883.62
1161.066
2035.655
864.8467
6283.086