/*--------------------------------*- C++ -*----------------------------------*\
| =========                 |                                                 |
| \\      /  F ield         | OpenFOAM: The Open Source CFD Toolbox           |
|  \\    /   O peration     | Version:  2206                                  |
|   \\  /    A nd           | Website:  www.openfoam.com                      |
|    \\/     M anipulation  |                                                 |
\*---------------------------------------------------------------------------*/
FoamFile
{
    version     2.0;
    format      ascii;
    arch        "LSB;label=32;scalar=64";
    class       volScalarField;
    location    "1500/fluid_0";
    object      rho;
}
// * * * * * * * * * * * * * * * * * * * * * * * * * * * * * * * * * * * * * //

dimensions      [1 -3 0 0 0 0 0];

internalField   nonuniform List<scalar> 
55970
(
1.153243
1.153243
1.153243
1.153243
1.153243
1.153242
1.153242
1.153242
1.153243
1.153242
1.153243
1.153243
1.153242
1.153242
1.153242
1.153242
1.146528
1.145541
1.146851
1.144842
1.145202
1.144901
1.1454
1.148726
1.150991
1.149
1.151131
1.14678
1.149765
1.147146
1.149949
1.145755
1.153242
1.153242
1.153242
1.147132
1.153242
1.153242
1.145968
1.153242
1.153242
1.153242
1.153242
1.153242
1.153242
1.153242
1.153242
1.153242
1.153242
1.153242
1.153242
1.153242
1.153242
1.153242
1.153242
1.153242
1.153242
1.153242
1.153242
1.153242
1.153242
1.153242
1.153242
1.153242
1.153242
1.153242
1.153242
1.153242
1.153242
1.153242
1.153242
1.153242
1.153242
1.153242
1.153242
1.153242
1.153242
1.153242
1.153242
1.153242
1.153242
1.153242
1.153242
1.153242
1.153242
1.153242
1.153242
1.153242
1.153242
1.153242
1.153242
1.153242
1.153242
1.153242
1.153242
1.153242
1.153242
1.153242
1.153242
1.153242
1.153242
1.153242
1.153242
1.153242
1.153242
1.153242
1.153242
1.153242
1.153242
1.153242
1.153242
1.153242
1.153242
1.153242
1.153242
1.153242
1.153242
1.153242
1.153242
1.153242
1.153242
1.153242
1.153242
1.153242
1.153242
1.153242
1.153242
1.153242
1.153242
1.153242
1.153242
1.153242
1.153242
1.153242
1.153242
1.153242
1.153242
1.153242
1.153242
1.153242
1.153242
1.153242
1.153242
1.153242
1.153242
1.153242
1.153242
1.153242
1.153242
1.153242
1.153242
1.153242
1.153242
1.153242
1.153242
1.153242
1.153242
1.153242
1.153242
1.153242
1.153242
1.153242
1.153242
1.153242
1.153242
1.153242
1.153242
1.153242
1.153242
1.153242
1.153242
1.153242
1.153242
1.153242
1.153242
1.153242
1.153242
1.153242
1.153242
1.153242
1.153242
1.153242
1.153242
1.153242
1.153242
1.153242
1.153242
1.153242
1.153242
1.153242
1.153242
1.153242
1.153242
1.153242
1.153242
1.153242
1.153242
1.153242
1.153242
1.153242
1.153242
1.153242
1.153242
1.153242
1.153242
1.153242
1.153242
1.153242
1.153242
1.153242
1.153242
1.153242
1.153242
1.153242
1.153242
1.153242
1.153242
1.153242
1.153242
1.153241
1.153242
1.153242
1.153242
1.153242
1.153242
1.153242
1.153242
1.153241
1.153242
1.153242
1.153242
1.153242
1.153242
1.153242
1.153242
1.153242
1.153242
1.153242
1.153242
1.153242
1.153242
1.153242
1.153242
1.153242
1.153241
1.153242
1.153242
1.153242
1.153241
1.153242
1.153242
1.153242
1.153241
1.153242
1.153242
1.153241
1.153241
1.153241
1.153239
1.153241
1.153235
1.153241
1.15324
1.153241
1.153238
1.153242
1.153242
1.153241
1.153241
1.147402
1.144978
1.145617
1.149202
1.151273
1.149445
1.151434
1.147486
1.150186
1.152395
1.152971
1.152474
1.153008
1.151959
1.152858
1.152065
1.152903
1.153159
1.153215
1.153175
1.153222
1.153133
1.153209
1.153151
1.153217
1.152524
1.153033
1.152581
1.153053
1.152163
1.152933
1.153182
1.153225
1.153187
1.153225
1.153162
1.153221
1.150898
1.151979
1.150991
1.152009
1.152579
1.15291
1.152621
1.15292
1.146168
1.153242
1.153242
1.153242
1.153242
1.147606
1.146347
1.147802
1.149534
1.151465
1.149656
1.151527
1.152607
1.153064
1.152637
1.153052
1.153242
1.153242
1.153242
1.153242
1.153242
1.153242
1.153242
1.153242
1.153242
1.153242
1.153242
1.153242
1.153242
1.153242
1.153242
1.153241
1.153242
1.153242
1.153242
1.153242
1.153242
1.153242
1.153242
1.153242
1.153242
1.15324
1.15324
1.153232
1.153242
1.153241
1.153241
1.153238
1.153242
1.153169
1.153241
1.153086
1.153242
1.153242
1.153242
1.15324
1.153126
1.144763
1.153227
1.152883
1.153239
1.153226
1.153231
1.153187
1.153242
1.153241
1.153241
1.153234
1.153231
1.153199
1.153197
1.153086
1.153238
1.153224
1.153224
1.153172
1.153084
1.152812
1.152814
1.152404
1.153177
1.153035
1.153048
1.152775
1.152478
1.152192
1.152058
1.151827
1.152802
1.152539
1.15247
1.152213
1.153233
1.153165
1.152946
1.15324
1.152817
1.153235
1.153196
1.153241
1.153235
1.153239
1.153222
1.153208
1.153116
1.152997
1.152481
1.153208
1.153086
1.153141
1.152883
1.153221
1.153105
1.153191
1.152928
1.153233
1.153187
1.153221
1.153115
1.152662
1.152017
1.152223
1.1516
1.153002
1.152615
1.152791
1.152323
1.153238
1.15319
1.153225
1.153064
1.152398
1.151974
1.151946
1.151592
1.152815
1.152455
1.152497
1.152136
1.151693
1.151544
1.151411
1.15135
1.152157
1.151947
1.15189
1.15174
1.151554
1.151306
1.151245
1.151113
1.152199
1.151889
1.151944
1.151706
1.151222
1.15125
1.151128
1.151222
1.151705
1.151614
1.151589
1.151556
1.152956
1.152631
1.152722
1.152449
1.151986
1.151693
1.151634
1.152321
1.152158
1.152035
1.151919
1.152682
1.15149
1.151503
1.151376
1.151455
1.151818
1.15175
1.151666
1.151645
1.151342
1.151458
1.151352
1.15149
1.151588
1.151607
1.151575
1.151632
1.152391
1.152313
1.153243
1.153243
1.153243
1.153243
1.153243
1.153243
1.153243
1.153242
1.153242
1.153242
1.153242
1.153243
1.153243
1.153243
1.153242
1.153242
1.153242
1.153242
1.153242
1.153242
1.153242
1.153242
1.153242
1.153242
1.153242
1.153242
1.153242
1.153242
1.153242
1.153242
1.153242
1.153242
1.153242
1.153242
1.153242
1.153242
1.153242
1.153242
1.153242
1.153242
1.153242
1.153242
1.153242
1.153242
1.153242
1.153242
1.153242
1.153242
1.153242
1.153242
1.153242
1.153242
1.153242
1.153242
1.153242
1.153242
1.153242
1.153242
1.153242
1.153242
1.153242
1.153242
1.153242
1.153242
1.153242
1.153242
1.153242
1.153242
1.153242
1.153242
1.153242
1.153242
1.153242
1.153242
1.153242
1.153242
1.153242
1.153242
1.153242
1.153242
1.153242
1.153242
1.153242
1.153242
1.153242
1.153242
1.153242
1.153242
1.153242
1.153242
1.153242
1.153242
1.153242
1.153242
1.153242
1.153242
1.153242
1.153242
1.153242
1.153242
1.153242
1.153242
1.153242
1.153242
1.153242
1.153242
1.153242
1.153242
1.153242
1.153242
1.153242
1.153242
1.153242
1.153242
1.153242
1.153242
1.153242
1.153242
1.153242
1.153242
1.153242
1.153242
1.153242
1.153242
1.153242
1.153242
1.153242
1.153242
1.153242
1.153242
1.153242
1.153242
1.153242
1.153242
1.153242
1.153242
1.153242
1.153242
1.153242
1.153242
1.153242
1.153242
1.153242
1.153242
1.153242
1.153242
1.153241
1.153242
1.153242
1.153242
1.153242
1.153242
1.153242
1.153242
1.153242
1.153242
1.153242
1.153241
1.153241
1.153242
1.153242
1.153241
1.153241
1.153242
1.153242
1.153241
1.153241
1.153242
1.153242
1.153242
1.153242
1.153242
1.153242
1.153242
1.153242
1.153242
1.153241
1.153241
1.153241
1.153241
1.153241
1.153241
1.153241
1.153242
1.153242
1.153242
1.153242
1.153242
1.153242
1.153242
1.153242
1.153242
1.153242
1.153242
1.153242
1.153242
1.153242
1.153242
1.153242
1.153242
1.153242
1.153242
1.153242
1.153242
1.153242
1.15324
1.153242
1.153242
1.153242
1.153242
1.153242
1.153242
1.153242
1.153242
1.153242
1.153242
1.153242
1.153242
1.153242
1.153241
1.153241
1.153241
1.15324
1.153225
1.153167
1.153242
1.153242
1.153242
1.153241
1.15324
1.153239
1.153236
1.15324
1.153238
1.153239
1.153236
1.15323
1.153222
1.153226
1.153216
1.153241
1.153231
1.153238
1.153209
1.153242
1.153241
1.153241
1.153241
1.15324
1.153239
1.15324
1.153238
1.153241
1.153241
1.153241
1.15324
1.153238
1.153234
1.153237
1.153233
1.153178
1.153067
1.153127
1.153026
1.153233
1.153226
1.153231
1.153223
1.153209
1.153194
1.153204
1.153187
1.153224
1.153215
1.153223
1.153214
1.153198
1.153184
1.153199
1.153187
1.153061
1.153204
1.153188
1.153194
1.153174
1.153142
1.152941
1.152835
1.152946
1.152898
1.153167
1.153145
1.15316
1.153138
1.153115
1.15309
1.15311
1.153087
1.153167
1.153151
1.153176
1.153166
1.153135
1.153119
1.153154
1.153143
1.152864
1.153102
1.153086
1.153132
1.153121
1.144956
1.144788
1.144966
1.144822
1.145114
1.14477
1.144852
1.144785
1.144932
1.145695
1.146404
1.14528
1.14545
1.146054
1.146166
1.147642
1.148625
1.14788
1.148848
1.147261
1.148227
1.14752
1.148446
1.145143
1.145275
1.145785
1.145039
1.145149
1.145579
1.146331
1.145655
1.147354
1.144776
1.144764
1.144771
1.144767
1.144789
1.144775
1.144806
1.144781
1.144795
1.144909
1.144878
1.144975
1.145284
1.145061
1.145426
1.14493
1.145199
1.145321
1.146113
1.145948
1.153241
1.147152
1.14477
1.144796
1.152712
1.144871
1.14529
1.144937
1.145483
1.144808
1.145034
1.145158
1.146538
1.148478
1.146867
1.1488
1.14594
1.147773
1.146216
1.148114
1.145047
1.145693
1.145168
1.145913
1.145301
1.147168
1.149057
1.147426
1.149253
1.146475
1.148374
1.151838
1.151644
1.151426
1.151192
1.151598
1.15093
1.15139
1.150653
1.151183
1.151771
1.151617
1.150357
1.150957
1.15005
1.15073
1.151448
1.151278
1.151696
1.152083
1.152492
1.151777
1.152317
1.152789
1.152957
1.152692
1.152901
1.152276
1.152908
1.151213
1.151391
1.152093
1.150745
1.150961
1.151876
1.152578
1.152838
1.152462
1.152779
1.151795
1.152776
1.153127
1.15297
1.153094
1.149742
1.150495
1.149433
1.150265
1.151104
1.151566
1.150934
1.151443
1.148934
1.149152
1.150044
1.148678
1.148904
1.149839
1.150766
1.151319
1.150612
1.151209
1.15194
1.15185
1.152153
1.151762
1.152088
1.151683
1.152031
1.152306
1.148439
1.148659
1.149645
1.148224
1.149261
1.150467
1.151106
1.15161
1.151979
1.152269
1.150245
1.151456
1.150494
1.151643
1.149759
1.151192
1.150029
1.151396
1.152332
1.152723
1.152053
1.152211
1.152666
1.150668
1.151791
1.150822
1.151906
1.150237
1.151554
1.152435
1.152807
1.15252
1.152869
1.15233
1.152757
1.152424
1.152941
1.152914
1.153
1.153108
1.153043
1.153131
1.15298
1.152323
1.15258
1.152168
1.152476
1.151385
1.151893
1.151238
1.151838
1.152841
1.153037
1.152806
1.153008
1.152421
1.152834
1.15242
1.152822
1.151682
1.152684
1.149759
1.150684
1.149623
1.150637
1.147374
1.148833
1.147538
1.148949
1.151662
1.152466
1.151674
1.152448
1.150461
1.151879
1.150564
1.151943
1.149402
1.151797
1.153152
1.153204
1.153151
1.153204
1.153073
1.153176
1.153081
1.153179
1.153227
1.153235
1.15322
1.153233
1.153142
1.153227
1.152935
1.15313
1.152955
1.153134
1.152718
1.153063
1.152773
1.153082
1.153202
1.153207
1.153229
1.153183
1.153221
1.153193
1.153226
1.153004
1.153214
1.151754
1.152706
1.151717
1.152691
1.149775
1.151898
1.149806
1.151849
1.153145
1.153227
1.153143
1.153226
1.153021
1.153215
1.153015
1.153212
1.145336
1.144826
1.144784
1.144801
1.144771
1.144856
1.144795
1.144823
1.144779
1.144761
1.144909
1.144819
1.144793
1.144856
1.144768
1.153241
1.15324
1.152978
1.153204
1.153238
1.153206
1.149392
1.146344
1.149524
1.147722
1.149252
1.147407
1.150248
1.14871
1.150028
1.148427
1.146096
1.145188
1.145824
1.145052
1.147057
1.145741
1.146721
1.145522
1.150753
1.148352
1.15089
1.14966
1.150728
1.149454
1.151406
1.150504
1.15131
1.150366
1.148214
1.146722
1.147905
1.146436
1.149362
1.148017
1.149137
1.147759
1.145028
1.144799
1.144872
1.144792
1.144825
1.144773
1.145097
1.144869
1.144985
1.144822
1.144772
1.146161
1.145141
1.145681
1.145143
1.145459
1.145015
1.146805
1.145898
1.146521
1.145684
1.149232
1.148291
1.149018
1.148066
1.149616
1.148747
1.148526
1.14729
1.146473
1.147077
1.146242
1.147807
1.146913
1.147577
1.14668
1.145996
1.146407
1.149991
1.149204
1.148997
1.150349
1.149651
1.148331
1.147432
1.148105
1.147189
1.148852
1.14798
1.148638
1.147753
1.145546
1.144941
1.145406
1.145079
1.14526
1.144982
1.145706
1.145258
1.145132
1.144853
1.146335
1.145307
1.146107
1.145527
1.145903
1.145149
1.144951
1.145045
1.144885
1.145399
1.145102
1.14525
1.145005
1.144915
1.144819
1.144783
1.144797
1.14477
1.144866
1.144803
1.144785
1.144773
1.144959
1.144845
1.144929
1.150683
1.150071
1.150985
1.150462
1.149361
1.148561
1.148337
1.149838
1.149107
1.151267
1.15082
1.151514
1.151138
1.150282
1.149653
1.150679
1.150128
1.147487
1.146096
1.145793
1.145366
1.145208
1.145773
1.14738
1.144794
1.144766
1.144773
1.144896
1.144792
1.144829
1.144761
1.144762
1.145248
1.144922
1.146189
1.15302
1.152642
1.15288
1.152659
1.152351
1.152784
1.152554
1.152891
1.152894
1.152725
1.152853
1.152017
1.152172
1.153048
1.152956
1.151766
1.150318
1.151853
1.151209
1.151783
1.151112
1.152179
1.15173
1.152152
1.151685
1.150363
1.149319
1.150226
1.149148
1.151131
1.150397
1.151076
1.150321
1.15242
1.151638
1.152464
1.152149
1.152662
1.152439
1.151721
1.151227
1.152128
1.151801
1.148625
1.148266
1.147227
1.148024
1.146984
1.149604
1.148746
1.149491
1.148616
1.150703
1.149805
1.15068
1.150086
1.150056
1.151435
1.151057
1.150695
1.150361
1.151744
1.151426
1.15194
1.151675
1.15104
1.15058
1.151352
1.150984
1.152119
1.151898
1.152271
1.152087
1.151632
1.15133
1.151867
1.151622
1.150021
1.149515
1.150549
1.150067
1.150978
1.150583
1.151333
1.151004
1.152409
1.152256
1.152076
1.151875
1.151641
1.151381
1.152813
1.152422
1.152827
1.152672
1.152941
1.152832
1.152463
1.152242
1.152684
1.152532
1.153029
1.152849
1.152956
1.152859
1.152757
1.152974
1.152904
1.151953
1.151532
1.151991
1.151748
1.152355
1.152194
1.151517
1.151316
1.152038
1.151915
1.152628
1.152429
1.15264
1.152532
1.152824
1.152751
1.152429
1.152344
1.152679
1.152622
1.15324
1.153239
1.15324
1.153239
1.15324
1.153239
1.15324
1.153215
1.152901
1.153218
1.152935
1.153233
1.153172
1.153235
1.15319
1.15324
1.15324
1.15324
1.15324
1.15324
1.15324
1.15324
1.15324
1.153239
1.15324
1.153239
1.15324
1.153239
1.15324
1.153239
1.153239
1.153239
1.153239
1.15324
1.15324
1.15324
1.15324
1.15324
1.15324
1.15324
1.15324
1.15324
1.15324
1.153233
1.153203
1.153235
1.153206
1.153237
1.153226
1.153238
1.15323
1.153051
1.152725
1.15307
1.152751
1.15317
1.153075
1.153195
1.153115
1.153235
1.153207
1.153237
1.153233
1.153238
1.153236
1.153221
1.153195
1.153229
1.153217
1.153239
1.153237
1.153235
1.153229
1.153234
1.153074
1.152768
1.153132
1.153038
1.153145
1.153059
1.153185
1.15314
1.153159
1.152889
1.152747
1.152942
1.152824
1.153061
1.152988
1.153107
1.153054
1.153201
1.153133
1.153216
1.153197
1.153228
1.15322
1.153166
1.153135
1.153205
1.153191
1.153239
1.153235
1.153239
1.153237
1.153239
1.153238
1.153239
1.153239
1.153221
1.153198
1.153229
1.153213
1.153233
1.153226
1.153237
1.153234
1.153237
1.153235
1.153231
1.153226
1.15322
1.153231
1.153236
1.15324
1.15324
1.15324
1.15324
1.153238
1.15323
1.153234
1.153239
1.153238
1.15324
1.15324
1.15324
1.15324
1.153239
1.153239
1.153239
1.153238
1.153236
1.153239
1.153238
1.153239
1.153239
1.153239
1.15324
1.153239
1.153239
1.152967
1.152877
1.152311
1.152278
1.152229
1.152575
1.152542
1.153241
1.153241
1.153241
1.153241
1.153241
1.153241
1.153241
1.153241
1.153241
1.153241
1.153241
1.153241
1.153241
1.153241
1.153241
1.153241
1.153241
1.153241
1.153241
1.153241
1.153241
1.153241
1.153241
1.153241
1.153241
1.153241
1.153241
1.153241
1.153241
1.153241
1.153241
1.153241
1.153241
1.153241
1.153241
1.153241
1.153241
1.153241
1.153241
1.153241
1.153241
1.153241
1.153241
1.153241
1.153241
1.153241
1.153241
1.153241
1.153241
1.153241
1.153241
1.153241
1.153241
1.153241
1.153241
1.153241
1.153241
1.153241
1.153241
1.153241
1.153241
1.153241
1.153241
1.153241
1.153241
1.153241
1.153241
1.153241
1.15324
1.153236
1.15324
1.153237
1.153221
1.153154
1.153226
1.153159
1.152826
1.1519
1.152825
1.151703
1.153241
1.153241
1.153241
1.153241
1.153241
1.153241
1.153241
1.153241
1.153241
1.153241
1.153241
1.153241
1.153241
1.153241
1.153241
1.153241
1.153241
1.153241
1.153241
1.153241
1.153241
1.153241
1.153241
1.153241
1.153241
1.153241
1.153241
1.153241
1.153241
1.153241
1.153241
1.153241
1.153241
1.153241
1.153241
1.153241
1.153241
1.15324
1.153225
1.153237
1.153203
1.153241
1.153234
1.153239
1.153226
1.153241
1.15324
1.153241
1.15324
1.153241
1.153241
1.153241
1.15324
1.153233
1.153172
1.153228
1.15312
1.153238
1.153215
1.153236
1.153199
1.153241
1.153238
1.153241
1.153235
1.153241
1.153241
1.153241
1.153241
1.153241
1.153241
1.153241
1.153241
1.153241
1.153241
1.153241
1.153241
1.153241
1.153241
1.153241
1.15324
1.153241
1.153241
1.15324
1.15324
1.153241
1.153241
1.153241
1.15324
1.153241
1.153239
1.15324
1.153238
1.153241
1.15324
1.153241
1.153239
1.153223
1.153063
1.15321
1.152909
1.153234
1.153181
1.15323
1.153151
1.15324
1.153238
1.15324
1.153238
1.15324
1.153239
1.15324
1.153239
1.153208
1.152889
1.153213
1.152888
1.15323
1.153151
1.153231
1.153156
1.15324
1.153232
1.15324
1.153234
1.153241
1.153241
1.153241
1.153241
1.153241
1.153241
1.15324
1.153241
1.153241
1.153241
1.153241
1.153241
1.15324
1.153241
1.15324
1.15324
1.15324
1.15324
1.15324
1.15324
1.15324
1.15324
1.15324
1.15324
1.15324
1.15324
1.15324
1.15324
1.15324
1.153238
1.15324
1.153238
1.15324
1.15324
1.15324
1.15324
1.15324
1.153238
1.15324
1.153238
1.153228
1.153165
1.153228
1.153152
1.152854
1.151746
1.152766
1.151617
1.153228
1.153152
1.153227
1.15314
1.15189
1.152787
1.151741
1.152693
1.151661
1.15324
1.15324
1.15324
1.153239
1.153236
1.153239
1.153236
1.153239
1.15323
1.153238
1.153235
1.153232
1.15324
1.15324
1.15324
1.15324
1.15324
1.153237
1.15324
1.153238
1.15324
1.153238
1.153237
1.153239
1.153239
1.153238
1.153235
1.153239
1.153236
1.153239
1.153239
1.153237
1.153238
1.15324
1.15324
1.15324
1.15324
1.15324
1.15324
1.15324
1.15324
1.15324
1.15324
1.15324
1.15324
1.15324
1.15324
1.15324
1.15324
1.15324
1.15324
1.153106
1.15258
1.152949
1.152172
1.153192
1.152979
1.153143
1.152809
1.151784
1.151257
1.151406
1.150994
1.152545
1.152078
1.152319
1.151898
1.152768
1.151802
1.152512
1.151431
1.153085
1.152655
1.152998
1.152487
1.151105
1.150839
1.150883
1.150784
1.152162
1.15182
1.152039
1.151806
1.153186
1.152923
1.15314
1.152908
1.151027
1.151006
1.150897
1.150976
1.151768
1.151606
1.151668
1.151586
1.151102
1.151243
1.151131
1.151319
1.151556
1.151577
1.151608
1.151692
1.150862
1.151028
1.150935
1.151197
1.151679
1.151681
1.151776
1.151892
1.151254
1.151523
1.151511
1.151815
1.151811
1.151972
1.152058
1.152229
1.152642
1.152527
1.152813
1.15279
1.152083
1.151098
1.151856
1.150975
1.152866
1.15234
1.152823
1.152388
1.150757
1.150848
1.150829
1.151104
1.152008
1.151936
1.152226
1.152281
1.151747
1.150996
1.151711
1.151194
1.152833
1.152518
1.152889
1.152762
1.151067
1.151455
1.151511
1.151895
1.152505
1.152565
1.15275
1.152791
1.153128
1.153039
1.15319
1.153157
1.151146
1.151506
1.151491
1.151868
1.152058
1.152221
1.152397
1.152527
1.151853
1.152149
1.152185
1.152393
1.152546
1.152648
1.152749
1.151859
1.152202
1.152237
1.152663
1.152765
1.152854
1.15292
1.152855
1.152928
1.152978
1.153023
1.153001
1.152997
1.15314
1.15314
1.151403
1.151569
1.151536
1.151754
1.151644
1.151753
1.15183
1.151981
1.151744
1.151911
1.151956
1.152129
1.151888
1.152023
1.152129
1.152259
1.151789
1.152024
1.152077
1.152288
1.152145
1.152302
1.152386
1.152516
1.15222
1.152377
1.152452
1.152573
1.152437
1.152545
1.152621
1.1527
1.152531
1.152567
1.152808
1.152843
1.152061
1.152273
1.152391
1.152152
1.152371
1.152461
1.152498
1.152592
1.152665
1.152734
1.152632
1.152697
1.152764
1.15281
1.152664
1.152721
1.152788
1.152829
1.152751
1.152791
1.15285
1.152879
1.152616
1.15288
1.152914
1.152377
1.152546
1.15267
1.152765
1.152829
1.152889
1.152667
1.152755
1.15281
1.15287
1.152836
1.152887
1.152936
1.15297
1.152981
1.153021
1.153057
1.153081
1.152969
1.153028
1.15305
1.153072
1.1531
1.153114
1.153013
1.153035
1.153148
1.153158
1.152819
1.152867
1.152914
1.152948
1.152928
1.152957
1.152998
1.153018
1.152904
1.152932
1.152973
1.152994
1.152982
1.153001
1.153036
1.15305
1.153088
1.153101
1.153126
1.153134
1.153111
1.153119
1.153141
1.153146
1.153057
1.153076
1.153168
1.153176
1.150336
1.149337
1.150433
1.149531
1.149049
1.149369
1.149299
1.149641
1.150488
1.149666
1.150667
1.149973
1.149523
1.15002
1.149925
1.150457
1.150054
1.15076
1.150384
1.151057
1.151391
1.151805
1.151623
1.151987
1.150776
1.151409
1.151112
1.151646
1.15191
1.152233
1.152071
1.152345
1.145546
1.145238
1.145416
1.145158
1.145213
1.145599
1.14516
1.145567
1.144824
1.144791
1.14529
1.145083
1.145173
1.145012
1.144799
1.14478
1.144782
1.145063
1.144941
1.144972
1.148105
1.147374
1.14792
1.147371
1.1507
1.150119
1.150771
1.15038
1.14825
1.149981
1.150258
1.150818
1.150742
1.151265
1.147582
1.146537
1.146086
1.14637
1.148869
1.148496
1.149071
1.150838
1.150806
1.150628
1.151046
1.151949
1.151867
1.152153
1.152096
1.151009
1.151642
1.151386
1.151862
1.151763
1.152163
1.152066
1.152326
1.152223
1.152482
1.152455
1.152667
1.152822
1.152863
1.152936
1.152476
1.152617
1.152557
1.152686
1.152669
1.152799
1.152818
1.152925
1.152892
1.152959
1.153011
1.152064
1.151807
1.152343
1.152305
1.15303
1.152969
1.15312
1.153093
1.152046
1.152333
1.152462
1.152655
1.152955
1.152975
1.153089
1.153105
1.152294
1.15204
1.152386
1.152257
1.152924
1.15284
1.15302
1.152974
1.152047
1.152148
1.152285
1.152388
1.152816
1.152828
1.152955
1.152963
1.15251
1.152467
1.15263
1.152564
1.15274
1.152691
1.152914
1.152865
1.153008
1.152975
1.152533
1.152533
1.152671
1.152677
1.152841
1.152835
1.152956
1.15295
1.153073
1.153047
1.153104
1.15308
1.153141
1.153123
1.153176
1.153164
1.153063
1.153053
1.15311
1.153155
1.153149
1.152507
1.152606
1.152562
1.152611
1.15285
1.152876
1.152673
1.152907
1.152939
1.153039
1.153049
1.153051
1.153056
1.153147
1.153147
1.153065
1.153077
1.15315
1.153153
1.153165
1.153142
1.153195
1.15318
1.153215
1.153206
1.153229
1.153225
1.153125
1.153117
1.153169
1.153165
1.153199
1.153195
1.153221
1.153219
1.153209
1.1532
1.153214
1.153209
1.153228
1.153226
1.153204
1.1532
1.153223
1.153221
1.153235
1.153233
1.153232
1.153231
1.153194
1.153192
1.153197
1.153196
1.15322
1.153218
1.153195
1.153196
1.15231
1.152486
1.152529
1.152673
1.152871
1.152923
1.152989
1.153024
1.152645
1.152776
1.152798
1.152901
1.152974
1.153018
1.153058
1.153091
1.15307
1.153091
1.153106
1.153159
1.153164
1.15312
1.153133
1.153019
1.153119
1.153127
1.153166
1.15317
1.153195
1.153197
1.153218
1.153218
1.153137
1.153149
1.153176
1.153184
1.153199
1.153202
1.153218
1.153214
1.153202
1.153228
1.153222
1.153233
1.153229
1.15319
1.153185
1.153218
1.153216
1.153223
1.153219
1.153234
1.153231
1.153237
1.153236
1.153238
1.153237
1.153239
1.153229
1.153227
1.153235
1.153234
1.153236
1.153235
1.153239
1.153239
1.153238
1.153238
1.153226
1.153226
1.153235
1.153234
1.153225
1.153226
1.153234
1.153234
1.153238
1.153238
1.152576
1.153228
1.153013
1.153053
1.153235
1.153086
1.153111
1.152876
1.152952
1.152981
1.153056
1.153238
1.153241
1.153231
1.152402
1.153159
1.153241
1.153205
1.15316
1.153183
1.153184
1.153217
1.153217
1.153187
1.153191
1.153217
1.153218
1.153226
1.153218
1.153234
1.15282
1.152784
1.152797
1.15313
1.153144
1.153078
1.153154
1.153162
1.153194
1.153197
1.153219
1.15322
1.1532
1.153203
1.153221
1.153221
1.153168
1.153173
1.153176
1.153179
1.153205
1.153206
1.153222
1.153222
1.153207
1.153208
1.153223
1.153223
1.153099
1.153125
1.153151
1.153155
1.153181
1.153122
1.15318
1.153182
1.153209
1.153209
1.153223
1.153223
1.153209
1.153223
1.153241
1.153241
1.153241
1.153241
1.153241
1.153241
1.153241
1.153241
1.153241
1.153241
1.153241
1.153241
1.153241
1.153241
1.153241
1.153241
1.153241
1.153241
1.153241
1.153241
1.153241
1.153241
1.153241
1.153241
1.153241
1.153241
1.153241
1.153241
1.153241
1.153241
1.153241
1.153241
1.153241
1.153241
1.153241
1.153241
1.153241
1.153241
1.153241
1.153241
1.153241
1.153241
1.153241
1.153241
1.153241
1.153241
1.153241
1.153241
1.153241
1.153241
1.153241
1.153241
1.153241
1.153241
1.153241
1.153241
1.153241
1.153241
1.153241
1.153241
1.153241
1.153241
1.153241
1.153241
1.153241
1.153241
1.153241
1.153241
1.153241
1.153241
1.153241
1.153241
1.153241
1.153241
1.153241
1.153241
1.153241
1.153241
1.153241
1.153241
1.153241
1.153241
1.153241
1.153241
1.153241
1.15324
1.153241
1.15324
1.153241
1.153241
1.153241
1.153241
1.153241
1.153241
1.153241
1.153241
1.153241
1.153241
1.153241
1.153241
1.153241
1.153241
1.153241
1.153241
1.153241
1.153241
1.153241
1.15324
1.153241
1.153241
1.153241
1.153241
1.153241
1.153241
1.153241
1.153241
1.153241
1.153241
1.153241
1.153241
1.153241
1.153241
1.15324
1.15324
1.153241
1.153239
1.15324
1.15324
1.153241
1.153241
1.153241
1.153241
1.153241
1.15324
1.15324
1.15324
1.15324
1.15324
1.15324
1.15324
1.15324
1.15324
1.15324
1.15324
1.153241
1.153241
1.153241
1.153241
1.153241
1.153241
1.153241
1.153241
1.15324
1.153241
1.15324
1.153241
1.153241
1.153241
1.15324
1.15324
1.15324
1.15324
1.15324
1.15324
1.15324
1.15324
1.15324
1.15324
1.15324
1.15324
1.15324
1.15324
1.15324
1.15324
1.15324
1.15324
1.15324
1.15324
1.15324
1.15324
1.15324
1.15324
1.15324
1.153232
1.153191
1.153229
1.153202
1.15324
1.153239
1.15324
1.153239
1.153235
1.153231
1.153235
1.153232
1.15324
1.153239
1.15324
1.153239
1.153237
1.153234
1.153237
1.153236
1.153133
1.153094
1.153179
1.153157
1.153225
1.153218
1.153227
1.153223
1.153211
1.153203
1.153218
1.153213
1.153231
1.153229
1.153234
1.153232
1.153225
1.153222
1.15323
1.153228
1.153231
1.153221
1.153237
1.153233
1.15324
1.153239
1.15324
1.153239
1.153238
1.153237
1.153239
1.153238
1.15324
1.15324
1.15324
1.15324
1.153239
1.153239
1.153239
1.153239
1.153211
1.153201
1.153229
1.153226
1.153236
1.153235
1.153237
1.153237
1.153234
1.153232
1.153236
1.153235
1.153238
1.153238
1.153239
1.153239
1.153238
1.153237
1.153239
1.153238
1.153053
1.153021
1.153137
1.153121
1.153195
1.153187
1.153207
1.153201
1.153178
1.153171
1.153196
1.153191
1.153218
1.153215
1.153225
1.153223
1.153212
1.153208
1.153221
1.153219
1.152997
1.15298
1.153109
1.1531
1.153163
1.153155
1.153186
1.153181
1.153148
1.15314
1.153176
1.153171
1.153205
1.153202
1.153217
1.153215
1.153199
1.153196
1.153213
1.153211
1.153193
1.153187
1.153224
1.153222
1.153231
1.15323
1.153234
1.153233
1.153229
1.153228
1.153233
1.153232
1.153237
1.153237
1.153238
1.153238
1.153236
1.153236
1.153238
1.153237
1.153182
1.153178
1.15322
1.153219
1.153226
1.153225
1.153231
1.15323
1.153224
1.153223
1.15323
1.153229
1.153235
1.153235
1.153237
1.153237
1.153234
1.153234
1.153237
1.153236
1.153239
1.153238
1.15324
1.153239
1.153237
1.153236
1.153239
1.153239
1.15324
1.15324
1.15324
1.15324
1.153235
1.153234
1.153238
1.153238
1.153233
1.153233
1.153238
1.153237
1.15324
1.153239
1.153239
1.153239
1.153233
1.153233
1.153237
1.153237
1.153233
1.153233
1.153237
1.153237
1.153239
1.153239
1.153239
1.153239
1.153232
1.153232
1.153236
1.153236
1.153232
1.153232
1.153236
1.153236
1.153239
1.153239
1.153239
1.153238
1.152968
1.153093
1.153134
1.153127
1.153166
1.153161
1.153192
1.153189
1.153209
1.153206
1.153204
1.153175
1.153172
1.153218
1.153217
1.153221
1.15322
1.153228
1.153227
1.153218
1.153216
1.153226
1.153225
1.153233
1.153233
1.153236
1.153236
1.153232
1.153232
1.153235
1.153235
1.153169
1.153216
1.153214
1.153212
1.153224
1.153222
1.153231
1.15323
1.153235
1.153234
1.153229
1.153234
1.153232
1.153231
1.153236
1.153235
1.153231
1.153231
1.153235
1.153234
1.153238
1.153238
1.153238
1.153238
1.15323
1.153234
1.153234
1.153237
1.153237
1.153242
1.153242
1.153242
1.153242
1.153242
1.153242
1.153242
1.153242
1.153242
1.153242
1.153242
1.153242
1.153242
1.153242
1.153242
1.153242
1.153242
1.153242
1.153242
1.153242
1.153242
1.153242
1.153242
1.153242
1.153242
1.153242
1.153242
1.153242
1.153242
1.153242
1.153242
1.153242
1.153242
1.153242
1.153242
1.153242
1.153242
1.153242
1.153242
1.153242
1.153242
1.153242
1.153242
1.144761
1.144762
1.144764
1.144764
1.144768
1.144769
1.14478
1.144762
1.153008
1.153049
1.153113
1.152944
1.147601
1.15324
1.15324
1.14484
1.15324
1.150331
1.15324
1.15324
1.153238
1.15324
1.153241
1.153241
1.149612
1.15324
1.152144
1.153238
1.153241
1.15324
1.153242
1.153241
1.15324
1.153241
1.15324
1.15324
1.153142
1.153239
1.153234
1.15324
1.153241
1.153241
1.153241
1.15324
1.153239
1.15324
1.15324
1.15324
1.153238
1.153209
1.15324
1.150417
1.153241
1.152947
1.153241
1.153025
1.153053
1.153241
1.14832
1.153241
1.15324
1.15324
1.153239
1.145901
1.153237
1.15324
1.153039
1.153214
1.153242
1.149314
1.15324
1.152974
1.153241
1.153239
1.153239
1.153241
1.153242
1.151328
1.153242
1.153239
1.144797
1.14482
1.15324
1.144927
1.15324
1.153241
1.145008
1.146126
1.153235
1.15324
1.153241
1.153241
1.144784
1.153241
1.144767
1.152432
1.153242
1.15324
1.153241
1.144771
1.153239
1.15324
1.144867
1.145229
1.145035
1.14555
1.152484
1.153241
1.153242
1.153241
1.150626
1.152583
1.145756
1.15324
1.153241
1.152421
1.153239
1.151805
1.153129
1.14777
1.148432
1.15324
1.153241
1.153239
1.15324
1.146927
1.15324
1.153241
1.145414
1.145588
1.153241
1.153241
1.15324
1.15324
1.153101
1.153241
1.152642
1.153241
1.153241
1.145812
1.153241
1.149304
1.153216
1.146614
1.153241
1.153242
1.147305
1.144764
1.153237
1.15324
1.144837
1.144917
1.153234
1.153241
1.15324
1.153241
1.150042
1.153241
1.153227
1.15321
1.153229
1.144903
1.15324
1.153166
1.153195
1.15324
1.153236
1.153192
1.153236
1.145005
1.147434
1.15324
1.153241
1.15324
1.153241
1.152941
1.153133
1.153224
1.14484
1.153236
1.152804
1.152406
1.144773
1.153127
1.153239
1.150563
1.153237
1.152953
1.153238
1.153239
1.153239
1.153238
1.153239
1.153239
1.153232
1.153236
1.15324
1.152567
1.151038
1.153241
1.153055
1.15324
1.152949
1.152177
1.153212
1.15324
1.15324
1.152904
1.15324
1.15323
1.15324
1.144838
1.153059
1.152511
1.153242
1.144859
1.153241
1.147982
1.153237
1.15324
1.153242
1.152499
1.153237
1.153241
1.153239
1.15232
1.153003
1.153236
1.151809
1.151843
1.15324
1.152889
1.153239
1.15324
1.153053
1.152105
1.14551
1.152921
1.153
1.151777
1.153127
1.151529
1.151858
1.145167
1.14551
1.15324
1.153241
1.152722
1.152832
1.151081
1.152527
1.152382
1.153009
1.153025
1.15324
1.152164
1.152125
1.152567
1.151784
1.153241
1.152965
1.152838
1.1505
1.145032
1.14502
1.152863
1.152859
1.153074
1.152385
1.152108
1.152388
1.15324
1.145117
1.152856
1.151754
1.153241
1.153234
1.15154
1.151618
1.153242