/*--------------------------------*- C++ -*----------------------------------*\
| =========                 |                                                 |
| \\      /  F ield         | OpenFOAM: The Open Source CFD Toolbox           |
|  \\    /   O peration     | Version:  2206                                  |
|   \\  /    A nd           | Website:  www.openfoam.com                      |
|    \\/     M anipulation  |                                                 |
\*---------------------------------------------------------------------------*/
FoamFile
{
    version     2.0;
    format      ascii;
    arch        "LSB;label=32;scalar=64";
    class       volScalarField;
    location    "1500/fluid_0";
    object      T;
}
// * * * * * * * * * * * * * * * * * * * * * * * * * * * * * * * * * * * * * //

dimensions      [0 0 0 1 0 0 0];

internalField   nonuniform List<scalar> 
55970
(
300
300
300
300
300
300
300
300
300
300
300
300
300
300
300
300
301.7557
302.0157
301.6709
302.2001
302.1054
302.1847
302.0531
301.1787
300.586
301.1069
300.5496
301.6898
300.9068
301.5937
300.8587
301.9592
300
300
300
301.5971
300
300
301.9032
300
300
300
300
300
300
300
300
300
300
300
300
300
300
300
300
300
300
300
300
300
300
300
300
300
300
300
300
300
300
300
300
300
300
300
300
300
300
300
300
300
300
300
300
300
300
300
300
300
300
300
300
300
300
300
300
300
300
300
300
300
300
300
300
300
300
300
300
300
300
300
300
300
300
300
300
300
300
300
300
300
300
300
300
300
300
300
300
300
300
300
300
300
300
300
300
300
300
300
300
300
300
300
300
300
300
300
300
300
300
300
300
300
300
300
300
300
300
300
300
300
300
300
300
300
300
300
300
300
300
300
300
300
300
300
300
300
300
300
300
300
300
300
300
300
300
300
300
300
300
300
300
300
300
300
300
300
300
300
300
300
300
300
300
300
300
300
300
300
300
300
300
300
300
300
300
300
300
300
300
300
300
300
300
300
300
300
300
300
300
300
300
300
300
300
300
300
300
300
300
300
300
300
300.0001
300
300.0003
300
300
300
300.0001
300
300
300
300
300
300
300
300
300.0001
300.0007
300.0002
300.0017
300
300.0003
300.0001
300.0008
300
300
300
300.0002
301.526
302.1645
301.996
301.054
300.5125
300.9905
300.4705
301.5045
300.7967
300.22
300.0699
300.1994
300.0603
300.3335
300.0993
300.3061
300.0877
300.0211
300.0065
300.0169
300.0047
300.0279
300.0082
300.0231
300.006
300.1864
300.0538
300.1715
300.0488
300.2805
300.0799
300.0152
300.0039
300.0139
300.0038
300.0204
300.005
300.6106
300.3285
300.5864
300.3207
300.1721
300.0858
300.1612
300.0833
301.8506
300
300
300
300
301.4725
301.8037
301.4202
300.9673
300.4625
300.9353
300.4461
300.1648
300.0458
300.1569
300.0491
300
300
300
300
300
300
300
300
300
300
300
300
300
300.0001
300.0001
300.0002
300
300
300
300.0001
300
300
300
300
300.0001
300.0006
300.0005
300.0026
300
300.0003
300.0002
300.0011
300
300.0183
300.0002
300.0399
300
300.0001
300.0001
300.0005
300.0294
302.2209
300.0032
300.0933
300.0008
300.0041
300.0028
300.0143
300
300.0002
300.0001
300.002
300.0029
300.0113
300.0117
300.0407
300.0012
300.0048
300.0049
300.0183
300.0413
300.112
300.1113
300.2181
300.0169
300.054
300.0504
300.1215
300.199
300.2735
300.3083
300.3683
300.1144
300.183
300.2009
300.2677
300.0024
300.02
300.0769
300.0006
300.1097
300.0019
300.012
300.0003
300.0017
300.0008
300.0052
300.0082
300.0329
300.0638
300.198
300.0089
300.0405
300.0263
300.0932
300.0053
300.0356
300.0132
300.0816
300.0022
300.0142
300.0054
300.0329
300.151
300.3188
300.2652
300.4274
300.0624
300.1631
300.1171
300.2389
300.0009
300.0133
300.0043
300.0461
300.2198
300.3302
300.3374
300.4297
300.111
300.2046
300.1937
300.2878
300.4033
300.4421
300.4768
300.4926
300.2824
300.3371
300.3519
300.3907
300.4396
300.5041
300.52
300.5542
300.2712
300.3521
300.3376
300.3995
300.5259
300.5186
300.5501
300.5255
300.4
300.4236
300.4298
300.4385
300.0742
300.1587
300.1349
300.2059
300.3271
300.4032
300.4186
300.2396
300.2821
300.3141
300.3444
300.1456
300.4562
300.4527
300.4856
300.465
300.3707
300.3883
300.4102
300.4154
300.4945
300.464
300.4915
300.4556
300.4303
300.4252
300.4333
300.4184
300.2211
300.2412
300
300
300
300
300
300
300
300
300
300
300
300
300
300
300
300
300
300
300
300
300
300
300
300
300
300
300
300
300
300
300
300
300
300
300
300
300
300
300
300
300
300
300
300
300
300
300
300
300
300
300
300
300
300
300
300
300
300
300
300
300
300
300
300
300
300
300
300
300
300
300
300
300
300
300
300
300
300
300
300
300
300
300
300
300
300
300
300
300
300
300
300
300
300
300
300
300
300
300
300
300
300
300
300
300
300
300
300
300
300
300
300
300
300
300
300
300
300
300
300
300
300
300
300
300
300
300
300
300
300
300
300
300
300
300
300
300
300
300
300
300
300
300
300
300
300
300
300
300
300
300
300
300
300
300
300
300
300
300
300
300
300
300
300
300
300
300
300
300
300
300
300
300
300
300
300
300
300
300
300
300
300
300
300
300
300
300
300
300
300
300
300
300
300
300
300
300.0001
300
300
300
300
300
300
300
300
300.0005
300
300
300
300
300
300
300
300
300
300
300
300
300
300.0001
300
300.0002
300.0005
300.0044
300.0195
300
300.0001
300.0001
300.0002
300.0004
300.0007
300.0014
300.0005
300.001
300.0008
300.0015
300.003
300.005
300.0041
300.0066
300.0002
300.0027
300.0009
300.0083
300
300
300
300
300.0003
300.0006
300.0004
300.0008
300
300.0002
300.0001
300.0002
300.0009
300.0017
300.001
300.002
300.0164
300.0452
300.0297
300.0559
300.0022
300.0039
300.0028
300.0047
300.0084
300.0124
300.0096
300.014
300.0044
300.0068
300.0046
300.007
300.0111
300.0148
300.0107
300.0139
300.0469
300.0098
300.0139
300.0124
300.0175
300.0257
300.078
300.1056
300.0766
300.0889
300.0192
300.0251
300.0209
300.0268
300.0327
300.0392
300.0339
300.0399
300.0192
300.0233
300.0168
300.0195
300.0274
300.0317
300.0224
300.0253
300.0978
300.036
300.0403
300.0283
300.0312
302.1703
302.2143
302.1674
302.2056
302.1285
302.2192
302.1974
302.2155
302.1766
301.9756
301.7882
302.0848
302.0405
301.8805
301.8512
301.4632
301.2052
301.4008
301.1465
301.5634
301.3096
301.4954
301.2521
302.1209
302.0865
301.9512
302.1485
302.1198
302.0058
301.8081
301.9859
301.5388
302.2172
302.2202
302.2185
302.2198
302.2139
302.2181
302.2092
302.216
302.2122
302.1825
302.1907
302.1653
302.0837
302.1429
302.0458
302.1772
302.1062
302.0738
301.8656
301.9091
300
301.5911
302.2195
302.212
300.1377
302.1928
302.0823
302.1755
302.0314
302.2096
302.1497
302.117
301.7536
301.2437
301.6669
301.1594
301.911
301.4288
301.8384
301.3395
302.1463
301.9761
302.1148
301.9176
302.0794
301.5879
301.0921
301.5202
301.0404
301.7702
301.2711
300.365
300.4155
300.4725
300.5335
300.4276
300.602
300.4817
300.6743
300.5359
300.3825
300.4227
300.7518
300.5949
300.832
300.6541
300.4668
300.511
300.4021
300.3011
300.1945
300.3809
300.2402
300.1171
300.0736
300.1425
300.088
300.2508
300.0862
300.528
300.4815
300.2984
300.6503
300.5939
300.3552
300.1722
300.1046
300.2025
300.1199
300.3762
300.1208
300.0293
300.0702
300.038
300.9126
300.7155
300.9937
300.7757
300.5566
300.436
300.601
300.4682
301.1242
301.0672
300.8336
301.1914
301.1322
300.8873
300.6448
300.5005
300.6853
300.5293
300.3385
300.362
300.2831
300.385
300.3
300.4056
300.3148
300.2431
301.2541
301.1964
300.938
301.3104
301.0385
300.7231
300.556
300.4246
300.3283
300.2528
300.781
300.4648
300.716
300.416
300.9081
300.5336
300.8375
300.4805
300.2362
300.1345
300.3091
300.2678
300.1494
300.6704
300.3773
300.6304
300.3475
300.7832
300.4392
300.2094
300.1126
300.1873
300.0966
300.2368
300.1257
300.2124
300.0778
300.0849
300.0625
300.0344
300.0512
300.0283
300.0677
300.2381
300.1714
300.2784
300.1983
300.4825
300.3502
300.521
300.3644
300.1034
300.0525
300.1125
300.06
300.2128
300.1053
300.2129
300.1084
300.4053
300.1444
300.9072
300.6655
300.9427
300.6774
301.5329
301.1501
301.4905
301.1199
300.4106
300.2011
300.4074
300.2059
300.7243
300.3541
300.6975
300.3375
301.001
300.3757
300.0225
300.0091
300.0229
300.0093
300.0433
300.0164
300.0412
300.0157
300.0031
300.0011
300.0052
300.0018
300.0254
300.0033
300.0792
300.0285
300.0739
300.0274
300.1357
300.0459
300.1214
300.0411
300.0096
300.0084
300.0027
300.0147
300.0048
300.0121
300.0037
300.0613
300.0067
300.3864
300.1388
300.3962
300.1428
300.9035
300.3495
300.8955
300.3623
300.0246
300.0033
300.0253
300.0035
300.057
300.0066
300.0586
300.0072
302.0695
302.2041
302.2161
302.2106
302.2187
302.1958
302.2127
302.2049
302.2165
302.2212
302.182
302.2067
302.2128
302.1965
302.2194
300
300
300.0681
300.0101
300.0002
300.0084
301.0043
301.8044
300.9695
301.4424
301.0409
301.5249
300.7799
301.1828
300.8376
301.257
301.8695
302.1099
301.9413
302.145
301.6163
301.9633
301.705
302.021
300.6483
301.2767
300.6124
300.9342
300.6546
300.9878
300.4775
300.713
300.5026
300.7492
301.3128
301.7052
301.3938
301.7801
301.0115
301.3643
301.0706
301.4321
302.1509
302.2113
302.1922
302.2142
302.2048
302.2184
302.1322
302.1932
302.1624
302.2053
302.2184
301.8523
302.1208
301.9788
302.1216
302.0372
302.1544
301.6821
301.9213
301.7575
301.9779
301.0459
301.2928
301.1022
301.3518
300.9454
301.1732
301.231
301.5556
301.7709
301.6115
301.8314
301.4195
301.655
301.4801
301.716
301.8962
301.7879
300.8472
301.0535
301.1074
300.7537
300.9362
301.2822
301.5186
301.3416
301.5821
301.1455
301.3744
301.2016
301.434
302.0145
302.1741
302.0514
302.1383
302.09
302.1633
301.9719
302.0908
302.1236
302.1971
301.8066
302.0773
301.8667
302.0201
301.9205
302.119
302.1719
302.1464
302.1886
302.0526
302.1316
302.0922
302.1571
302.1809
302.206
302.2162
302.2117
302.2189
302.1931
302.2104
302.2148
302.2177
302.1691
302.1992
302.1769
300.6665
300.8265
300.5874
300.724
301.0121
301.222
301.2805
300.8871
301.0787
300.5139
300.6306
300.4493
300.5475
300.771
300.9357
300.6673
300.8114
301.5037
301.8695
301.9493
302.0622
302.1033
301.9547
301.5317
302.2129
302.2203
302.2181
302.1856
302.2134
302.2033
302.2213
302.2214
302.0929
302.1791
301.8448
300.057
300.1554
300.0936
300.151
300.2312
300.1185
300.1784
300.0905
300.0898
300.1336
300.1004
300.3182
300.2779
300.0496
300.0735
300.3837
300.7616
300.3609
300.5289
300.3791
300.5542
300.276
300.3928
300.283
300.4047
300.7498
301.0233
300.7856
301.0678
300.5489
300.7408
300.5634
300.7607
300.2132
300.4168
300.2016
300.2838
300.1502
300.2082
300.3953
300.5241
300.289
300.3743
301.2047
301.2989
301.5722
301.3625
301.6357
300.9479
301.1726
300.9776
301.2071
300.6608
300.8952
300.6666
300.8222
300.8298
300.4695
300.5681
300.6626
300.7499
300.3895
300.4723
300.3383
300.4072
300.5731
300.6931
300.4914
300.5877
300.2916
300.3493
300.2521
300.2998
300.4185
300.4972
300.3572
300.4212
300.8393
300.9718
300.7011
300.8271
300.589
300.6922
300.4965
300.5823
300.216
300.2559
300.3027
300.3551
300.416
300.4838
300.1109
300.2125
300.1071
300.1475
300.0776
300.1058
300.2018
300.2594
300.1443
300.1837
300.0545
300.1014
300.0736
300.0987
300.1254
300.0689
300.087
300.3344
300.4443
300.3246
300.3879
300.2299
300.2718
300.448
300.5006
300.3122
300.3444
300.1587
300.2105
300.1556
300.1836
300.1077
300.1266
300.2106
300.2325
300.1454
300.1603
300
300.0004
300
300.0003
300
300.0001
300
300.0064
300.0879
300.0056
300.0793
300.0018
300.0175
300.0013
300.0129
300
300
300
300
300
300
300
300
300.0002
300
300.0002
300
300.0001
300
300
300.0002
300.0001
300.0001
300
300
300
300
300
300
300
300
300
300
300.0016
300.0096
300.0013
300.0086
300.0007
300.0036
300.0004
300.0025
300.0491
300.1336
300.0439
300.1268
300.0181
300.0425
300.0116
300.0322
300.0012
300.0083
300.0006
300.0017
300.0004
300.0009
300.0047
300.0114
300.0026
300.0058
300.0002
300.0005
300.0012
300.0027
300.0012
300.0429
300.1224
300.0278
300.0522
300.0245
300.0468
300.014
300.0255
300.0208
300.0909
300.1278
300.0771
300.1076
300.0462
300.065
300.0341
300.048
300.01
300.0275
300.006
300.0108
300.0028
300.0049
300.0189
300.027
300.0087
300.0123
300.0002
300.0011
300.0001
300.0006
300.0001
300.0004
300
300.0001
300.0048
300.0107
300.0025
300.0066
300.0017
300.0034
300.0005
300.0013
300.0005
300.0011
300.002
300.0033
300.0048
300.002
300.0008
300
300
300
300
300.0004
300.0024
300.0013
300.0001
300.0004
300
300
300
300
300.0001
300
300
300.0003
300.0007
300.0001
300.0002
300.0001
300.0002
300
300
300
300
300.0707
300.0939
300.241
300.2497
300.2625
300.1723
300.1809
300
300
300
300
300
300
300
300
300
300
300
300
300
300
300
300
300
300
300
300
300
300
300
300
300
300
300
300
300
300
300
300
300
300
300
300
300
300
300
300
300
300
300
300
300
300
300
300
300
300
300
300
300
300
300
300
300
300
300
300
300
300
300
300
300
300
300
300
300.0002
300.0011
300.0001
300.0008
300.005
300.0226
300.0037
300.0211
300.1076
300.3489
300.1081
300.4001
300
300
300
300
300
300
300
300
300
300
300
300
300
300
300
300
300
300
300
300
300
300
300
300
300
300
300
300
300
300
300.0001
300
300.0001
300
300
300
300.0001
300.0005
300.0043
300.0011
300.0099
300.0002
300.0019
300.0005
300.004
300
300.0002
300
300.0003
300
300.0001
300
300.0002
300.0021
300.0179
300.0034
300.0314
300.0008
300.0066
300.0013
300.0107
300
300.0007
300.0001
300.0015
300
300
300
300
300
300
300
300
300
300
300
300
300
300
300
300
300
300
300
300
300
300
300
300
300
300.0005
300.0001
300.0007
300
300.0002
300
300.0003
300.0047
300.0463
300.008
300.0862
300.0018
300.0154
300.0026
300.0231
300
300.0007
300
300.0005
300
300.0003
300
300.0002
300.0084
300.0912
300.0072
300.0916
300.0026
300.023
300.0023
300.0219
300.0001
300.0022
300
300.0016
300
300
300
300
300
300
300
300
300
300
300
300
300
300
300
300
300
300
300
300
300
300
300
300
300
300
300
300
300.0001
300.0006
300.0001
300.0005
300
300
300
300
300
300.0005
300
300.0005
300.0032
300.0196
300.0033
300.0229
300.1003
300.3887
300.1233
300.4224
300.0032
300.0228
300.0034
300.026
300.3514
300.1178
300.3901
300.1421
300.4109
300
300.0001
300.0001
300.0003
300.0011
300.0003
300.0011
300.0001
300.0026
300.0004
300.0013
300.0021
300
300
300
300
300.0001
300.0007
300
300.0004
300
300.0004
300.0007
300.0001
300.0001
300.0004
300.0011
300.0003
300.0009
300.0001
300.0002
300.0006
300.0004
300
300
300
300
300
300
300
300
300
300
300
300
300
300
300
300
300
300
300.0352
300.1722
300.0759
300.2782
300.0128
300.0682
300.0256
300.1123
300.3794
300.5166
300.4779
300.5852
300.1812
300.3026
300.2399
300.3494
300.1231
300.3745
300.1896
300.4712
300.0406
300.1524
300.063
300.1959
300.556
300.6253
300.614
300.6393
300.2806
300.3694
300.3126
300.3728
300.0144
300.0825
300.0262
300.0863
300.5766
300.582
300.6103
300.5894
300.3833
300.4253
300.4092
300.4304
300.5568
300.5198
300.5489
300.4999
300.4383
300.4328
300.4245
300.4026
300.6191
300.5755
300.5997
300.5314
300.406
300.4055
300.3807
300.3502
300.5166
300.4465
300.4495
300.3706
300.3717
300.3296
300.3072
300.2627
300.1555
300.1853
300.1107
300.1167
300.3013
300.5579
300.3603
300.5896
300.0974
300.234
300.1085
300.2214
300.6465
300.6223
300.6273
300.5555
300.3204
300.3388
300.2633
300.2489
300.3886
300.584
300.3978
300.5321
300.1058
300.1875
300.091
300.1239
300.5652
300.4639
300.449
300.3492
300.1907
300.1749
300.1268
300.1162
300.0292
300.052
300.0129
300.0214
300.5444
300.4507
300.4547
300.3566
300.3072
300.2646
300.2188
300.1849
300.3604
300.2837
300.2743
300.22
300.1802
300.1537
300.1275
300.3587
300.2697
300.2604
300.1495
300.1231
300.1
300.0829
300.0999
300.0811
300.0679
300.0563
300.0618
300.0629
300.0256
300.0259
300.4781
300.4349
300.4433
300.3865
300.4154
300.387
300.3666
300.3274
300.3893
300.3458
300.3341
300.289
300.3518
300.3166
300.289
300.2551
300.3773
300.3162
300.3023
300.2475
300.2847
300.2439
300.2219
300.1882
300.2652
300.2246
300.2051
300.1734
300.2087
300.1808
300.1608
300.1404
300.1842
300.1748
300.1122
300.1032
300.3066
300.2515
300.221
300.2831
300.2259
300.2025
300.193
300.1687
300.1497
300.1318
300.1582
300.1412
300.1238
300.1118
300.1498
300.1352
300.1178
300.107
300.1272
300.1168
300.1016
300.0941
300.1623
300.0935
300.0848
300.2245
300.1806
300.1481
300.1235
300.1069
300.0913
300.1491
300.1263
300.112
300.0964
300.1051
300.0917
300.0791
300.0703
300.0672
300.0568
300.0477
300.0412
300.0705
300.0551
300.0493
300.0438
300.0363
300.0327
300.0589
300.0532
300.0239
300.0212
300.1096
300.0972
300.0848
300.0761
300.0812
300.0736
300.0631
300.0578
300.0876
300.0801
300.0695
300.0642
300.0671
300.0623
300.0531
300.0496
300.0395
300.0363
300.0297
300.0276
300.0337
300.0316
300.0257
300.0243
300.0476
300.0426
300.0187
300.0168
300.7559
301.0176
300.731
300.9666
301.0927
301.0084
301.0271
300.9374
300.7167
300.9311
300.6699
300.8509
300.9685
300.8381
300.8633
300.724
300.8293
300.6446
300.743
300.5673
300.4806
300.3726
300.4201
300.3255
300.6406
300.4755
300.553
300.4138
300.3453
300.2615
300.3036
300.2325
302.014
302.095
302.0485
302.1163
302.1017
301.9993
302.1156
302.0079
302.2049
302.2132
302.0816
302.136
302.1124
302.1546
302.2113
302.2163
302.2158
302.1413
302.1734
302.1653
301.341
301.5324
301.3892
301.533
300.6613
300.8126
300.6427
300.7443
301.3021
300.8482
300.7761
300.6298
300.6498
300.5133
301.4777
301.7532
301.872
301.7968
301.1396
301.2373
301.0871
300.625
300.6334
300.68
300.5709
300.3351
300.3566
300.2822
300.2969
300.5798
300.4149
300.4816
300.3579
300.3835
300.2797
300.3049
300.2372
300.2641
300.1967
300.2037
300.1486
300.1083
300.0976
300.0787
300.1984
300.1618
300.1775
300.1439
300.1484
300.1145
300.1094
300.0818
300.0905
300.0731
300.0595
300.3057
300.3722
300.2329
300.2425
300.0543
300.0699
300.0307
300.0378
300.3097
300.2352
300.2015
300.1516
300.0736
300.0683
300.0387
300.0348
300.2456
300.3118
300.2218
300.2551
300.0818
300.1034
300.0568
300.0686
300.3098
300.2832
300.2477
300.2207
300.1097
300.1065
300.0735
300.0714
300.1894
300.2004
300.1581
300.1752
300.1296
300.1421
300.0843
300.0969
300.0597
300.0683
300.1833
300.1833
300.1474
300.1457
300.1032
300.1046
300.0734
300.0748
300.0429
300.0497
300.0349
300.0411
300.0253
300.03
300.0161
300.0192
300.0455
300.0481
300.0334
300.0216
300.0231
300.19
300.1642
300.1756
300.1628
300.1006
300.0939
300.1469
300.086
300.0777
300.0517
300.0491
300.0484
300.0472
300.0236
300.0235
300.0448
300.0417
300.023
300.022
300.019
300.025
300.0114
300.0151
300.0061
300.0084
300.0024
300.0035
300.0292
300.0313
300.0178
300.019
300.0103
300.0113
300.0045
300.0051
300.0076
300.0099
300.0063
300.0077
300.0026
300.0033
300.009
300.01
300.0039
300.0045
300.0011
300.0013
300.0016
300.0019
300.0115
300.0121
300.0107
300.011
300.0049
300.0052
300.0111
300.011
300.2413
300.1955
300.1841
300.1469
300.0952
300.0819
300.0646
300.0557
300.1542
300.1204
300.1145
300.0879
300.0688
300.0573
300.0468
300.0385
300.0438
300.0381
300.0344
300.0207
300.0193
300.0307
300.0273
300.0571
300.0309
300.029
300.0188
300.0178
300.0112
300.0108
300.0054
300.0054
300.0263
300.0234
300.0162
300.0143
300.0102
300.0095
300.0053
300.0065
300.0096
300.0028
300.0043
300.0016
300.0027
300.0125
300.014
300.0054
300.0059
300.0042
300.0051
300.0013
300.0019
300.0004
300.0007
300.0004
300.0005
300.0001
300.0025
300.003
300.001
300.0012
300.0007
300.0009
300
300.0001
300.0002
300.0002
300.0033
300.0034
300.001
300.0011
300.0034
300.0034
300.0012
300.0013
300.0003
300.0004
300.1724
300.0037
300.0588
300.0484
300.0018
300.0399
300.0334
300.0943
300.0747
300.0671
300.0476
300.001
300
300.0024
300.2179
300.0207
300.0003
300.0088
300.0215
300.0146
300.0143
300.0057
300.0059
300.0135
300.0127
300.0058
300.0056
300.0033
300.0063
300.0013
300.1086
300.1179
300.1148
300.0284
300.0249
300.0421
300.0222
300.0202
300.0118
300.011
300.0054
300.0052
300.0103
300.0097
300.005
300.0048
300.0186
300.0174
300.0165
300.0159
300.0092
300.0088
300.0047
300.0046
300.0085
300.0083
300.0045
300.0044
300.0366
300.0298
300.0231
300.022
300.0153
300.0306
300.0155
300.0151
300.0081
300.008
300.0044
300.0044
300.008
300.0044
300
300
300
300
300
300
300
300
300
300
300
300
300
300
300
300
300
300
300
300
300
300
300
300
300
300
300
300
300
300
300
300
300
300
300
300
300
300
300
300
300
300
300
300
300
300
300
300
300
300
300
300
300
300
300
300
300
300
300
300
300
300
300
300
300
300
300
300
300
300
300
300
300
300
300
300
300
300
300
300
300
300
300
300
300
300.0001
300
300.0002
300
300
300
300
300
300
300
300
300
300
300
300
300
300
300
300
300
300
300
300
300
300
300
300
300
300
300
300
300
300
300
300
300
300
300
300
300
300.0002
300
300.0001
300
300
300
300
300
300
300
300
300
299.9999
299.9999
299.9999
299.9999
300
299.9999
299.9999
300
300
300
300
300
300
300
300
300
300
300
300
300
300
300
300
300
300
300
300
300
300
299.9999
300
300
300
299.9999
299.9999
299.9999
299.9999
299.9999
300
300
299.9999
299.9999
299.9999
299.9999
299.9999
299.9999
300.0022
300.013
300.0031
300.01
300.0001
300.0004
300.0002
300.0004
300.0014
300.0024
300.0013
300.0023
300.0002
300.0004
300.0002
300.0004
300.001
300.0015
300.0007
300.0011
300.0279
300.038
300.0157
300.0214
300.0041
300.0058
300.0036
300.0046
300.0076
300.0096
300.0059
300.0072
300.0023
300.003
300.0016
300.0021
300.0038
300.0047
300.0027
300.0032
300.0024
300.0048
300.0007
300.0016
300.0001
300.0002
300.0001
300.0002
300.0004
300.0007
300.0003
300.0005
300
300
300
300
300.0001
300.0002
300
300.0001
300.0075
300.01
300.0026
300.0035
300.001
300.0013
300.0007
300.0008
300.0016
300.0019
300.0011
300.0013
300.0003
300.0004
300.0002
300.0002
300.0005
300.0006
300.0003
300.0004
300.0487
300.057
300.0266
300.0309
300.0118
300.0139
300.0086
300.0101
300.0161
300.0181
300.0115
300.0129
300.0056
300.0065
300.0038
300.0043
300.0074
300.0082
300.0049
300.0054
300.0631
300.0675
300.0341
300.0365
300.0201
300.0221
300.0142
300.0155
300.0241
300.026
300.0168
300.0181
300.0091
300.0099
300.006
300.0065
300.0107
300.0116
300.0071
300.0076
300.0122
300.0139
300.0042
300.0047
300.0023
300.0026
300.0015
300.0017
300.0029
300.0032
300.0019
300.0021
300.0007
300.0009
300.0004
300.0005
300.001
300.0011
300.0005
300.0006
300.0151
300.0161
300.0051
300.0053
300.0035
300.0039
300.0023
300.0025
300.0042
300.0045
300.0027
300.0029
300.0012
300.0013
300.0007
300.0007
300.0014
300.0015
300.0008
300.0009
300.0002
300.0004
300
300
300.0006
300.0009
300.0001
300.0002
299.9999
299.9999
300
300
300.0012
300.0014
300.0003
300.0004
300.0016
300.0017
300.0005
300.0006
300
300
300.0001
300.0001
300.0018
300.0018
300.0006
300.0007
300.0018
300.0019
300.0008
300.0008
300.0001
300.0001
300.0002
300.0002
300.0019
300.0019
300.0008
300.0009
300.002
300.002
300.001
300.001
300.0002
300.0003
300.0003
300.0003
300.0708
300.0382
300.0278
300.0295
300.0193
300.0206
300.0124
300.0133
300.0082
300.0088
300.0094
300.0169
300.0176
300.0056
300.0059
300.0049
300.0053
300.0031
300.0034
300.0057
300.0062
300.0037
300.004
300.0017
300.0018
300.001
300.001
300.002
300.0022
300.0011
300.0012
300.0184
300.0063
300.0067
300.0072
300.0043
300.0046
300.0024
300.0026
300.0013
300.0015
300.0028
300.0016
300.0021
300.0022
300.0011
300.0012
300.0022
300.0023
300.0013
300.0014
300.0004
300.0004
300.0005
300.0005
300.0025
300.0015
300.0016
300.0006
300.0007
300
300
300
300
300
300
300
300
300
300
300
300
300
300
300
300
300
300
300
300
300
300
300
300
300
300
300
300
300
300
300
300
300
300
300
300
300
300
300
300
300
300
300
302.2213
302.2213
302.2208
302.2209
302.2199
302.2194
302.2167
302.2211
300.0601
300.0495
300.0329
300.0769
301.4733
300
300.0001
302.201
300
300.7586
300
300
300.0004
300
300
300
300.9475
300
300.285
300.0003
300
300
300
300
300
300
300
300
300.0252
300
300.0017
300
300
300
300
300
300.0003
300
300
300
300.0003
300.0082
300
300.7362
300
300.0769
300
300.0559
300.0485
300
301.2858
300
300
300
300
301.9203
300.0005
300
300.0523
300.0065
300
301.0238
300
300.0692
300
300
300.0001
300
300
300.4988
300
300.0002
302.2114
302.2054
300.0006
302.1775
300
300
302.1563
301.8615
300.001
300
300
300
302.215
300.0003
302.2193
300.2103
300
300
300
302.2182
300
300
302.193
302.0979
302.1493
302.0135
300.1969
300
300
300.0001
300.6812
300.171
301.9591
300
300
300.213
300.0007
300.3734
300.0288
301.4295
301.2554
300.0003
300
300.0002
300
301.6511
300
300
302.0492
302.0033
300
300
300
300
300.0359
300
300.1553
300
300
301.9443
300
301.027
300.0068
301.7336
300
300
301.5516
302.2205
300.0005
300
302.2013
302.1797
300.0013
300
300
300
300.8342
300
300.0033
300.0079
300.0031
302.1841
300
300.0195
300.0119
300
300.0009
300.0121
300.0008
302.1573
301.5164
300
300
300
300
300.0779
300.0274
300.0037
302.2009
300.0007
300.1135
300.2167
302.2175
300.0292
300.0001
300.6984
300.0008
300.0745
300.0002
300.0001
300
300.0006
300.0001
300.0001
300.002
300.0015
300.0004
300.1751
300.5731
300
300.0484
300
300.0759
300.2767
300.007
300
300
300.0875
300
300.0021
300
302.2011
300.0469
300.1898
300
302.1954
300
301.374
300.0004
300
300
300.1927
300.0004
300
300.0002
300.2393
300.0615
300.0012
300.372
300.3631
300
300.0915
300
300
300.0486
300.2953
302.024
300.0827
300.0625
300.3802
300.0297
300.4456
300.359
302.1149
302.0239
300
300.0002
300.135
300.1065
300.5616
300.1858
300.2235
300.06
300.0557
300
300.2798
300.2899
300.1753
300.3785
300
300.0714
300.1046
300.7134
302.1504
302.1532
300.0981
300.0992
300.0431
300.2226
300.2942
300.2221
300
302.1276
300.0999
300.3858
300
300.0015
300.4414
300.421
300
300
300
300
300.0953
300.009
300.0001
301.798
300.0003
300
300
300
300
300
300
300.0035
300.0848
300.3137
300
300.0895
300
300
300.0163
300
300.0009
300.8786
300.0001
300.1241
300
300.0001
300
300
300
300
300
300
301.1468
300
300
300
300
300
300
302.2178
300
299.9999
300.5966
302.1963
300.0004
300
300
300
300.0059
300
300
301.77
300
300
300
300.0025
300
300.0002
300
300.6529
300.0126
300
302.2102
300.0035
300
300
300
300.0005
300
300.5057
300.2936
300
300
300.0016
300
300
300
300
300.0089
300
300.0061
300
300
300.0013
300.0028
300.1237
300
300
300
300.0001
300
300.3046
300.0095
300.0021
301.5438
300
300
300
300
300.0001
300
300
300.0006
300.0009
300.0005
300
300.0608
300.4402
300
300.0019
300.0129
302.1563
300.0156
300
300
300.0166
300
300.0062
300.0001
300
300.2646
300.014
301.9923
300
302.1178
300
300.3125
300
300
300.1331
300.0003
302.2212
300.0649
300.5484
300
300.0016
300
300.0004
300
300
300
300.0001
300
300
300.0002
300
300
300
300
300.7257
300
300
300
300
300
300
300
300.0002
300.017
300
300.5862
300.0014
301.4264
300
300
300
300
300.0001
300
300.6181
302.1963
300
300.0006
300
300
300.19
300.0034
300
300
300.0004
300
300
300.0903
300
300
300.0134
300.0001
300.0049
300.001
301.6289
300
300.0027
300.0035
300.027
300
300.0072
300.0064
300
300.024
300.0001
300
300
300
300.1817
300
300
300.0007
300
300
300
300.0076
300
300
300.0001
300
300.2517
300
300.0001
300.0025
300
300
300.0001
300
300.0008
300
300.1544
300
300.0006
300.0001
300.0002
300
300
300.001
300
299.9999
300.0001
300
300
300
300
300
300.0001
300.0001
300.0001
300
300.0012
300.1071
300.0008
300.0106
299.9999
300.0908
300
300
300.0012
300
300.2742
300.2909
300.0005
300
300.1172
300
300.0108
299.9999
300
300
300.1634
301.2154
300.0054
300.5826
299.9999
300
300
300.0002
300.0015
300
300.0014
300
300
300
300
302.1413
300.0033
300.1944
300.0023
302.2201
300.1121
300
300.2592
300.0087
302.1643
300.0005
300.0152
300
300.0117
300.0135
300
300
300
300
300
300.0001
300
300.0184
300
300
300
300.0003
300
300.0001
300.0004
300
300
300.0002
300
300.2476
300
300
300.0013
300
300
300.06
300
300
300
300
300
300
300
300.0612
300
300.0064
300
300
300.0035
302.2058
300.0028
300
300
301.4541
300.1106
300.0254
300.1018
300.0042
300
300.0674
300
300
300
299.9999
300.0003
300.134
300
300
300
300
300
300
300
300
300.0008
300
299.9999
300.3692
300
300
300
300
300
300.0001
300
300
300.7413
300
300
300
300
300
300.6772
300
300
300
300.0042
300
300
300
300
300.3577
300
300
300
300
300.5384
300
302.2115
300
300
300
300
300
300.3946
300.0022
300.7347
300.0012
301.7181
300.0002
300.1504
300
300.5933
300.001
299.9999
300
300.0004
300.0168
300
300
300
300.0007
300.0042
300
300
300
300
300.0315
300
300
300
300
300
300
300.0012
300
300.1067
300
300.1801
300
302.2208
300.0103
300
300
300.0005
300.0001
300
300
300.001
300.0006
300
300
300
300
300
300
300
300
300
300
300.7459
300
300
300.5959
300
300.6205
300.0002
300.0022
300
300.1168
302.1893
300
300
300
300.0003
302.1661
300.0042
300
300
300
300.0015
300.0009
300.0022
302.1956
300.0003
300.0025
300
300.0002
300
300
300
300.6431
300.0003
300
300.0015
300.1124
300.0486
300
300
300
300
300.0109
299.9999
300
300.0446
300
300
300
300
300
300
300
300
300
300
300
302.1941
300
300
300
300
300
300.0031
300
300
300
300
300
300
300.0004
300
300
300
300
300.3305
300
300
300
300
300
300
300
300
300
300
300
300
300
300
300
300
300
300.2486
300.5662
300
300
300
300.0725
300
300
300
300
300
300
300
300
300
300
300
300
300
300
300
300
300
300
300.027
300
300
300
300
300
300.0501
300
300
300
300
300.1388
300.0125
300.0001
300
300
300
301.2876
300
300
300
300
300
300.2476
300
300
300
300
300
300.0029
300
300
300
300
300
300
300.0796
300
300
300
300
300
300
302.0248
300.0004
300.0039
300
300.018
300
300
300.2933
300
300
300.0002
300
300
300
300
300
300
300
300
300
300
300.0001
300
300
300.03
300
300
300
300
300
300.5877
300
300
300
300
300
300
300
300
300
300
300
300
300
300.0001
301.9846
300
299.9999
300
302.1138
300.0614
301.5872
300.0019
300.0112
300
300.0018
300.0001
300
301.1511
300.0453
300.0002
300
300.2208
300
300
301.7056
300
300.0896
300.0077
301.6464
300.8135
300.0002
301.3708
300.0249
300.0584
300.5163
300
300.0171
301.9655
300
301.9508
300.008
300.6318
302.1663
300
300.0322
300.6182
300.1809
300
300.0179
302.1433
300
300.0081
300.0059
300.0066
300.4261
300.1831
300.0141
300.0121
301.3484
302.2104
300.185
300.0538
301.939
300.0158
301.5512
300.0725
301.3698
300.3553
302.0242
300.0001
300.0116
302.1381
301.8024
300
300.0039
301.4036
300
300
300.011
302.0307
300.0568
300
300.2242
300.0118
300.886
300
300.0011
300
300
300.03
301.8946
300
301.5592
300
302.0739
301.6014
300.0006
301.269
300.0381
302.2132
302.2208
300.8735
300.0015
300
302.1
302.2189
300.0072
300.0092
300.1528
300
300.0038
300
300.2565
300.0067
300.0001
302.0665
300
300.0006
300.0213
300.0047
300.6681
300
300.0575
300
300
300
300
300.7964
300
301.3623
300
300.589
302.2208
300
300
300.017
300
301.9807
300.0036
300
300.0344
300.2524
300
301.8654
300.2868
300.0082
300
300.0067
300
300
300.0006
300.0047
300
300
301.2264
300.0011
300