/*--------------------------------*- C++ -*----------------------------------*\
| =========                 |                                                 |
| \\      /  F ield         | OpenFOAM: The Open Source CFD Toolbox           |
|  \\    /   O peration     | Version:  2206                                  |
|   \\  /    A nd           | Website:  www.openfoam.com                      |
|    \\/     M anipulation  |                                                 |
\*---------------------------------------------------------------------------*/
FoamFile
{
    version     2.0;
    format      ascii;
    arch        "LSB;label=32;scalar=64";
    class       volVectorField;
    location    "1500/fluid_0";
    object      U;
}
// * * * * * * * * * * * * * * * * * * * * * * * * * * * * * * * * * * * * * //

dimensions      [0 1 -1 0 0 0 0];

internalField   nonuniform List<vector> 
55970
(
(0.4640735 0.02058919 -0.003955263)
(0.4649892 0.02082136 -0.005671441)
(0.4661867 0.02079005 -0.007909333)
(0.4693088 0.02266153 -0.002852624)
(0.4700567 0.02289059 -0.004293657)
(0.4759467 0.02411316 -0.00462864)
(0.4817482 0.02491793 -0.004520903)
(0.4870772 0.02477149 -0.004391663)
(0.471212 0.02289051 -0.006252954)
(0.4775792 0.02418351 -0.006659465)
(0.4729774 0.02307766 -0.008808669)
(0.479916 0.02445317 -0.009290255)
(0.4837839 0.02481725 -0.006497061)
(0.4895183 0.02495101 -0.006236032)
(0.4864107 0.02516752 -0.009180781)
(0.4924626 0.0255225 -0.008812325)
(0.2064888 -1.558711 0.2100274)
(0.1840823 -2.281405 0.1407644)
(0.2475285 -1.54252 0.2432685)
(0.1099034 -3.066736 0.08394212)
(0.1099025 -2.541362 0.131785)
(0.1267848 -3.032316 0.1001602)
(0.1365494 -2.483585 0.1526258)
(0.3073595 -0.6237239 0.2806889)
(0.3298841 -0.01192718 0.2736135)
(0.325837 -0.5995132 0.3001168)
(0.3361416 -0.004625267 0.2902797)
(0.148177 -1.406811 0.178338)
(0.223039 -0.302052 0.2143351)
(0.1758182 -1.358783 0.220558)
(0.2240757 -0.2993164 0.2521757)
(0.2231213 -2.271002 0.1703321)
(0.4932073 0.02396861 -0.001282115)
(0.4915554 0.02467783 -0.003555897)
(0.4953498 0.02445139 -0.002333665)
(0.2874396 -1.515326 0.2769775)
(0.4961896 0.02344076 -0.0001176924)
(0.497957 0.02247423 0.001280592)
(0.2544884 -2.250788 0.1961649)
(0.4985177 0.02420352 -0.0009903335)
(0.5007094 0.02338878 0.0007973131)
(0.4944741 0.0249538 -0.005488928)
(0.4986803 0.02476225 -0.004381778)
(0.4979537 0.02556455 -0.007944075)
(0.5026937 0.02561677 -0.006675575)
(0.5023887 0.02486744 -0.002992967)
(0.5053014 0.02451988 -0.0009536503)
(0.5070003 0.02596594 -0.004882827)
(0.5104909 0.02560545 -0.002903007)
(0.4601703 0.01748838 -0.002591409)
(0.4542687 0.01121906 -0.001981469)
(0.4578265 0.0146659 -0.002492138)
(0.4606899 0.01763893 -0.003942363)
(0.4582644 0.01473891 -0.003540495)
(0.4533331 0.009352173 -0.002006486)
(0.45623 0.01244924 -0.002530205)
(0.4552097 0.01071077 -0.002383356)
(0.4567083 0.01254305 -0.00358653)
(0.4556098 0.01082271 -0.003331947)
(0.4615306 0.01811885 -0.005660897)
(0.4590572 0.0148912 -0.005261168)
(0.4625765 0.01813003 -0.007543854)
(0.4601791 0.01505733 -0.007296502)
(0.457403 0.01270534 -0.005201399)
(0.4563734 0.01093281 -0.004968836)
(0.4583493 0.01281164 -0.007051264)
(0.4574474 0.0111449 -0.006812235)
(0.465444 0.02007792 -0.00440463)
(0.4699307 0.02159558 -0.004589819)
(0.4623814 0.01739824 -0.004116784)
(0.4663831 0.01924608 -0.004309153)
(0.4740996 0.02261632 -0.004356566)
(0.4780015 0.02289264 -0.003868404)
(0.4700174 0.02050021 -0.003809241)
(0.4732542 0.02120851 -0.003264739)
(0.457931 0.01325039 -0.00264994)
(0.4602687 0.01516294 -0.004114924)
(0.4638815 0.01724481 -0.004146384)
(0.4586812 0.01336033 -0.003856449)
(0.4618774 0.01553001 -0.003924785)
(0.4672045 0.01887214 -0.003487572)
(0.4701516 0.01995414 -0.002699222)
(0.4648202 0.0173806 -0.003166226)
(0.4674919 0.01880808 -0.002180112)
(0.4682491 0.01983227 -0.007200332)
(0.4773023 0.02239493 -0.006574428)
(0.4632686 0.01555585 -0.006585213)
(0.4709642 0.0192942 -0.005347748)
(0.4545134 0.009350607 -0.002230432)
(0.4540408 0.00822754 -0.002107734)
(0.4549539 0.009441274 -0.003278602)
(0.4544811 0.008310822 -0.003048491)
(0.4536949 0.007208319 -0.001981836)
(0.4534778 0.00630086 -0.001793489)
(0.454187 0.007338663 -0.002866709)
(0.4539365 0.006388165 -0.002625537)
(0.4557143 0.009563094 -0.004812328)
(0.4553104 0.008463526 -0.004544701)
(0.4566817 0.009783872 -0.006503426)
(0.4563518 0.008625609 -0.006243368)
(0.4550064 0.007533514 -0.004338241)
(0.4548232 0.006563484 -0.00410256)
(0.4561333 0.00773976 -0.006029077)
(0.4559993 0.006806944 -0.005807427)
(0.4568966 0.01179021 -0.002521597)
(0.4594848 0.01396774 -0.002405524)
(0.4576945 0.01189213 -0.0037169)
(0.4605385 0.0141054 -0.003645375)
(0.4569243 0.01064758 -0.003457176)
(0.4595025 0.01288562 -0.003345281)
(0.4618178 0.01585144 -0.001626436)
(0.4637473 0.01744314 -0.0006785718)
(0.463179 0.01611723 -0.002771572)
(0.4655658 0.01785236 -0.001661446)
(0.4618724 0.01503423 -0.002392994)
(0.4640243 0.01704917 -0.001268245)
(0.4564841 0.009577113 -0.003190705)
(0.4588842 0.01183932 -0.003034344)
(0.4561357 0.008577242 -0.002948358)
(0.4584742 0.01087486 -0.002764121)
(0.4610852 0.0141199 -0.00200967)
(0.463095 0.01636571 -0.0008617772)
(0.4606471 0.01328151 -0.001720652)
(0.4626051 0.01570583 -0.0005240047)
(0.4608171 0.01271955 -0.005880818)
(0.4674603 0.01711597 -0.00424266)
(0.4598991 0.01057058 -0.005251215)
(0.4661879 0.01536113 -0.003408679)
(0.4812896 0.0225666 -0.0007914523)
(0.4752523 0.02136194 -7.936226e-05)
(0.4813146 0.02314249 -0.002917278)
(0.484102 0.02299969 -0.001727074)
(0.4758879 0.02182251 -0.002113453)
(0.4779781 0.02211587 -0.0008414743)
(0.4830864 0.02212662 0.0008185496)
(0.4841419 0.02116892 0.002387775)
(0.4762376 0.0213633 0.001512732)
(0.4764828 0.02086796 0.003407896)
(0.4862309 0.02290129 0.0001009908)
(0.487755 0.02213748 0.002154471)
(0.4794181 0.02242187 0.001132732)
(0.480189 0.02218813 0.003346759)
(0.4700875 0.02023789 -0.0003433946)
(0.4713336 0.0207858 0.0006335511)
(0.4672054 0.01943232 7.030525e-05)
(0.4680337 0.02033847 0.001126326)
(0.4725176 0.02090879 -0.001323754)
(0.4742616 0.02157647 6.765549e-05)
(0.4695955 0.02011517 -0.0006855692)
(0.471055 0.0211678 0.000777916)
(0.4717594 0.02107317 0.002402881)
(0.4713737 0.02084462 0.004254476)
(0.4680298 0.02097293 0.002937006)
(0.4671304 0.02097665 0.005082746)
(0.4752856 0.02220851 0.002188151)
(0.4756425 0.02230441 0.004603167)
(0.4717161 0.02210861 0.003052924)
(0.4716488 0.02251876 0.00575911)
(0.4844634 0.02386642 -0.004265398)
(0.4897096 0.02460861 -0.0001274694)
(0.4770574 0.02213222 -0.002250276)
(0.4810682 0.02452112 0.002786145)
(0.4843675 0.01996476 0.004987592)
(0.4838036 0.01800753 0.007552158)
(0.4758713 0.01985807 0.006080652)
(0.4742703 0.017958 0.009063349)
(0.4885292 0.02152068 0.005044179)
(0.488761 0.01993403 0.008370967)
(0.4802241 0.02180455 0.006587459)
(0.479614 0.02052872 0.01021167)
(0.4823873 0.01528221 0.01140042)
(0.4802134 0.0113572 0.0153)
(0.4718312 0.01520656 0.01373808)
(0.4686011 0.01102701 0.0185218)
(0.4883146 0.01836801 0.01275769)
(0.4874336 0.01529681 0.0178244)
(0.4782807 0.01900781 0.01537887)
(0.4764608 0.01612114 0.02122713)
(0.4701435 0.01995527 0.007723273)
(0.4678967 0.01811765 0.01125494)
(0.4652019 0.02035905 0.008909807)
(0.4621736 0.01872245 0.01361568)
(0.4752173 0.02214691 0.008344316)
(0.4741859 0.02107463 0.01269297)
(0.470662 0.02266836 0.01003749)
(0.4689557 0.02198489 0.01521803)
(0.4643636 0.01534231 0.01685279)
(0.4597605 0.01097949 0.02347305)
(0.4573267 0.01607049 0.02046558)
(0.4510588 0.01180072 0.02903122)
(0.472209 0.01967413 0.01895557)
(0.4696539 0.01693995 0.02650445)
(0.4661887 0.02097803 0.02277213)
(0.4626671 0.01878472 0.03196754)
(0.4930343 0.02471427 0.006390886)
(0.4948345 0.02405557 0.01606449)
(0.4831055 0.02635862 0.01104961)
(0.4837141 0.02772911 0.02413312)
(0.4648801 0.01883628 0.0005046297)
(0.4653557 0.02005666 0.001616952)
(0.4629165 0.0183599 0.0007671504)
(0.463102 0.01982472 0.00202835)
(0.4673591 0.01947457 -5.367278e-05)
(0.4685375 0.02087194 0.001537991)
(0.4655683 0.01895209 0.0003881656)
(0.4664933 0.02065491 0.002127242)
(0.4649617 0.02093986 0.003768618)
(0.4636154 0.02129501 0.006516664)
(0.4623779 0.02106395 0.004568737)
(0.4605581 0.02189641 0.007778166)
(0.4688922 0.02213526 0.004136562)
(0.4685179 0.0229484 0.00740345)
(0.4665637 0.02225635 0.005085985)
(0.4658513 0.0235575 0.008860102)
(0.4615662 0.01797765 0.001165258)
(0.4615663 0.0197721 0.002698143)
(0.460629 0.019761 0.003255297)
(0.4645044 0.01851845 0.000906458)
(0.4653034 0.02055187 0.002883432)
(0.4639932 0.01809649 0.001340328)
(0.4647522 0.02047997 0.003538834)
(0.4605046 0.02140873 0.00569888)
(0.4582574 0.02280066 0.009650046)
(0.4593536 0.02186934 0.006686336)
(0.4567316 0.02395678 0.01120588)
(0.4652163 0.0225812 0.006302125)
(0.4643594 0.02448653 0.01076579)
(0.4646113 0.02296173 0.007360375)
(0.4636821 0.02555404 0.01235809)
(0.4729168 0.02122546 -0.000644164)
(0.4764612 0.02514792 0.005525345)
(0.4715915 0.02046476 0.0006253845)
(0.4754687 0.02609448 0.00800414)
(0.4610513 0.02103218 0.01133748)
(0.4570204 0.01987239 0.01698694)
(0.4572222 0.02213161 0.01346166)
(0.45232 0.02149735 0.02074049)
(0.4671528 0.02354153 0.01255508)
(0.4650413 0.02343729 0.01890152)
(0.4640493 0.0247518 0.01486395)
(0.4614502 0.02544236 0.0223938)
(0.4510065 0.0174962 0.02624061)
(0.4433317 0.01363697 0.03729809)
(0.4451443 0.01988255 0.031998)
(0.4357404 0.01683791 0.04695823)
(0.461688 0.02308891 0.02828469)
(0.4577597 0.02185316 0.03996392)
(0.4576453 0.02602722 0.03352848)
(0.453362 0.02612311 0.04763163)
(0.4542546 0.02379511 0.01654192)
(0.4483753 0.02440035 0.02517483)
(0.4523604 0.02581453 0.01938576)
(0.4459246 0.02744606 0.02967266)
(0.4623661 0.02645818 0.01784682)
(0.4595846 0.02830918 0.02679411)
(0.461665 0.02839794 0.02038195)
(0.4591069 0.03149252 0.03065235)
(0.439877 0.02375818 0.04009811)
(0.4285878 0.02270319 0.05973465)
(0.4372512 0.0288458 0.04761006)
(0.4261032 0.02830347 0.0718371)
(0.4555919 0.03037439 0.04038251)
(0.4514558 0.0328718 0.05793932)
(0.4558037 0.03525668 0.04605385)
(0.4536442 0.03999729 0.06646072)
(0.4782561 0.02910418 0.01615839)
(0.4790119 0.03381628 0.0336591)
(0.4782836 0.03313683 0.02110369)
(0.482088 0.04269159 0.04295239)
(0.3165655 -1.467712 0.2857439)
(0.1487628 -3.007994 0.1147227)
(0.1646175 -2.445254 0.1638645)
(0.3251112 -0.6019768 0.3254431)
(0.3339421 -0.01710648 0.2929137)
(0.3445067 -0.5640318 0.3092515)
(0.3646016 -0.01030903 0.2752517)
(0.1941769 -1.333393 0.2337122)
(0.2278625 -0.2939845 0.2537178)
(0.3372521 0.1379452 0.2114777)
(0.3421588 0.1155702 0.1530272)
(0.3540458 0.1354555 0.2147893)
(0.3693186 0.1136495 0.1543388)
(0.2617899 0.1083532 0.1880556)
(0.2938266 0.1325731 0.1345862)
(0.271376 0.1048714 0.192347)
(0.3175512 0.1281607 0.1366442)
(0.3448933 0.08366855 0.1124566)
(0.3460481 0.06056781 0.0850522)
(0.3812875 0.0883351 0.1127059)
(0.3893796 0.06587973 0.08362663)
(0.3134499 0.09703285 0.09521958)
(0.3246109 0.06891126 0.07071956)
(0.3468163 0.09891187 0.09514783)
(0.3665164 0.07394856 0.06935653)
(0.3650449 0.1169332 0.2122908)
(0.3879635 0.1034619 0.1545515)
(0.3905853 0.1001064 0.2086312)
(0.4068189 0.09216179 0.1538925)
(0.2865115 0.09046553 0.1854069)
(0.3380376 0.1157494 0.1386151)
(0.4069115 0.08497245 0.1117073)
(0.4191484 0.06704392 0.08312456)
(0.4274313 0.07719702 0.1115014)
(0.4398632 0.06592928 0.08321116)
(0.3717661 0.09356941 0.09546032)
(0.3957151 0.07321001 0.06959295)
(0.2102292 -0.02028184 0.1667739)
(0.2257174 0.1173937 0.1443561)
(0.1986995 -0.03004083 0.1592627)
(0.2281491 0.1190735 0.1429505)
(0.2483768 0.142089 0.1193594)
(0.2644865 0.1326295 0.09873132)
(0.2584639 0.1412431 0.1186107)
(0.2774577 0.1363753 0.098005)
(0.2846132 -2.227247 0.2246602)
(0.4962475 0.006766828 0.01039974)
(0.4946722 0.003885221 0.01228497)
(0.4872478 0.005681639 0.01199509)
(0.4854097 0.002566315 0.01349694)
(0.3326386 -1.492427 0.3032423)
(0.2917359 -2.223342 0.2788705)
(0.3532316 -1.403697 0.3523305)
(0.3481854 -0.568193 0.3312409)
(0.3713218 -0.06461915 0.2830089)
(0.4054867 -0.5777058 0.380046)
(0.3863516 -0.04826718 0.2766541)
(0.4039683 0.08085726 0.2126047)
(0.4150377 0.07944759 0.153526)
(0.4454214 0.07012185 0.2087345)
(0.4289835 0.08442394 0.1475358)
(0.4941522 0.008286676 0.01588888)
(0.5005077 0.01335154 0.01848797)
(0.4989084 0.008704984 0.02469353)
(0.4969485 0.004111218 0.03200759)
(0.4949646 -0.002513895 0.04074545)
(0.509321 0.01882717 0.01763599)
(0.5090042 0.01643898 0.02378758)
(0.5175105 0.02228755 0.01529347)
(0.5181989 0.02113227 0.0208135)
(0.5086335 0.01375331 0.03087282)
(0.5081479 0.01044471 0.03909861)
(0.5186066 0.01953509 0.02752)
(0.5192626 0.01869428 0.03471569)
(0.508027 0.00773391 0.04843427)
(0.5201031 0.01686488 0.04315134)
(0.5211381 0.01482464 0.05192136)
(0.4772423 0.006302724 0.02125267)
(0.4737956 -0.0005177544 0.02786284)
(0.4643393 0.005476687 0.02579367)
(0.4591445 -0.002014649 0.03368342)
(0.4858928 0.01221821 0.02440624)
(0.4841732 0.007078839 0.03207424)
(0.473973 0.01288335 0.02929678)
(0.4712011 0.007945552 0.03853486)
(0.4697383 -0.008974711 0.03640833)
(0.4653639 -0.0196446 0.0459709)
(0.4532414 -0.01184223 0.04578071)
(0.446842 -0.02376084 0.05907158)
(0.4819759 0.001903634 0.04154577)
(0.4799824 -0.005752503 0.05250376)
(0.4678657 0.002618166 0.05091514)
(0.464912 -0.004709778 0.06515204)
(0.4538673 0.004859853 0.03391984)
(0.596371 -0.0777645 -0.2253859)
(0.4434639 0.005739267 0.04260629)
(0.5765005 -0.1052659 -0.2527979)
(0.4662398 0.01368287 0.03696677)
(0.4627038 0.008951509 0.04942019)
(0.4583112 0.01628001 0.04507366)
(0.4538738 0.01238798 0.06073864)
(0.637366 -0.04505877 -0.2433316)
(0.02547749 -3.018451 0.07504387)
(0.611886 -0.04660366 -0.168544)
(0.399611 -0.03776928 0.1618204)
(0.4585349 0.003761312 0.06609053)
(0.4552174 -0.002627858 0.08563343)
(0.4491896 0.009018802 0.08237865)
(0.444919 0.006218094 0.1098645)
(0.4958648 0.02240769 0.03000341)
(0.4971883 0.02008484 0.04933174)
(0.484109 0.02873029 0.04412724)
(0.4868809 0.03169399 0.07236814)
(0.4606647 -0.03230689 0.05868356)
(0.4556661 -0.04647366 0.07313946)
(0.4387961 -0.03822846 0.07771447)
(0.4338292 -0.05596034 0.101047)
(0.4776098 -0.01313175 0.06570135)
(0.4761025 -0.02326604 0.0809678)
(0.4613749 -0.01165834 0.08318612)
(0.4589019 -0.02038979 0.1059003)
(0.4179127 -0.04458075 0.1151677)
(0.4364254 -0.09064919 0.1452927)
(0.4174518 -0.07134367 0.1588497)
(0.4966806 -0.184579 0.1977001)
(0.4499626 -0.007894627 0.1123799)
(0.4525557 -0.0201565 0.1447524)
(0.4421136 0.001796009 0.1481161)
(0.4710564 -0.03428605 0.1920276)
(0.5078529 -0.1802066 0.1777772)
(0.611039 -0.2837501 0.1950175)
(0.6174302 -0.3226369 0.2269278)
(0.7196191 -0.420166 0.2291636)
(0.4799498 -0.05298667 0.1783138)
(0.5458094 -0.1154986 0.2070646)
(0.5434618 -0.1082354 0.2282046)
(0.6382052 -0.1952957 0.248736)
(0.4997439 0.01822236 0.0749418)
(0.490838 0.04185647 0.1136938)
(0.5231274 0.0410606 0.1651546)
(0.4329488 0.007505835 0.05500663)
(0.6262875 -0.1013505 -0.35133)
(0.4250926 0.01135248 0.0709729)
(0.41037 0.007756089 0.1000903)
(0.4527535 0.02051785 0.05636428)
(0.4488538 0.01879537 0.07720561)
(0.448837 0.02636496 0.06791071)
(0.4467324 0.0282469 0.09315213)
(0.6054392 -0.05914624 -0.1904808)
(0.4081385 -0.02524977 0.1135074)
(0.3892662 -0.00296557 0.1576131)
(0.437781 -0.1031645 0.2247463)
(0.4440749 0.01934436 0.105647)
(0.4407763 0.02115717 0.1447249)
(0.4413795 0.03655987 0.1307763)
(0.4523116 0.03165925 0.1867475)
(0.4163474 0.02015122 0.09342411)
(0.3970286 0.02615552 0.1388676)
(0.4172502 0.0331502 0.1140696)
(0.3969906 0.03169673 0.1668304)
(0.4481692 0.03630485 0.08338914)
(0.4479208 0.04632437 0.1162534)
(0.4549726 0.04760131 0.09539487)
(0.4595284 0.06672736 0.1340549)
(0.401787 -0.02373787 0.2100864)
(0.5321073 -0.2312797 0.2807359)
(0.4685082 -0.1195125 0.258962)
(0.6573479 -0.4047695 0.3217749)
(0.4474316 0.06097013 0.1635294)
(0.4921489 0.0276301 0.2258033)
(0.4794187 0.07026167 0.191433)
(0.5714291 -0.00850328 0.2557173)
(0.4826096 0.04047037 0.06035184)
(0.4899074 0.05855 0.09978946)
(0.4939857 0.05929013 0.07493707)
(0.5176886 0.09895589 0.119928)
(0.470903 -0.1615379 0.2191524)
(0.6111179 -0.336633 0.2558997)
(0.5835171 -0.3117373 0.2756921)
(0.7316113 -0.5004499 0.2923867)
(0.4578758 8.8508e-05 0.1926605)
(0.5334449 -0.079126 0.2412248)
(0.5161829 -0.03220542 0.2402033)
(0.6305841 -0.1498645 0.279925)
(0.7313092 -0.4702881 0.2634457)
(0.7726022 -0.5111525 0.2445143)
(0.7942719 -0.5763033 0.2735842)
(0.7576326 -0.5385853 0.2441059)
(0.6370001 -0.1816722 0.2675913)
(0.7266848 -0.2654214 0.2709884)
(0.7365334 -0.2588359 0.2882419)
(0.8000623 -0.3185183 0.2766676)
(0.7102431 -0.4816792 0.313427)
(0.8118996 -0.6188837 0.304834)
(0.8052181 -0.6220239 0.3290163)
(0.8341848 -0.6699924 0.298889)
(0.5991964 -0.08001632 0.2699322)
(0.7227773 -0.2083828 0.2883549)
(0.7019157 -0.1424038 0.2822413)
(0.8122636 -0.2574872 0.2792392)
(0.7964543 -0.6086673 0.2689429)
(0.7154311 -0.5138638 0.233217)
(0.7703766 -0.5941138 0.2507356)
(0.6977046 -0.4923217 0.2001781)
(0.8084849 -0.2968623 0.2801652)
(0.8428318 -0.3235874 0.2553678)
(0.871934 -0.3148603 0.251801)
(0.8862168 -0.3151246 0.2101242)
(0.5190964 0.07869837 0.154305)
(0.6117145 0.04924096 0.1951532)
(0.602042 0.1061412 0.1528975)
(0.7139193 0.06844812 0.14753)
(0.6927966 -0.3556434 0.1944901)
(0.7507222 -0.4469711 0.2117459)
(0.7157441 -0.4146717 0.1981606)
(0.6243733 -0.1812338 0.2211837)
(0.6889794 -0.2309545 0.2228711)
(0.7154225 -0.2598707 0.2493402)
(0.7536375 -0.2866957 0.2397013)
(0.6016804 0.008046976 0.2002917)
(0.7337612 -0.4702976 0.2185065)
(0.6466474 -0.3883032 0.1939869)
(0.6713755 -0.4456608 0.2088401)
(0.5880041 -0.3587471 0.1826022)
(0.7766053 -0.3056975 0.259741)
(0.7811715 -0.3009123 0.2388594)
(0.8173934 -0.3266122 0.2522448)
(0.799328 -0.2972564 0.2233279)
(0.6367102 -0.4187764 0.1864394)
(0.5896631 -0.3603961 0.1446104)
(0.6529346 -0.425892 0.1402366)
(0.6335014 -0.3874135 0.09249063)
(0.842089 -0.3080431 0.219341)
(0.8213447 -0.2713142 0.1778267)
(0.8759048 -0.2887846 0.1591171)
(0.8534365 -0.2538205 0.10582)
(0.7072168 0.004536777 0.2004685)
(0.7787804 0.04067712 0.1076359)
(0.4682705 0.02143375 -0.01050881)
(0.4712747 0.02178516 -0.01430143)
(0.4758631 0.02245068 -0.01846608)
(0.4757071 0.02373216 -0.0117079)
(0.4831747 0.02521997 -0.01228909)
(0.4797243 0.02407809 -0.0157587)
(0.4879075 0.02557923 -0.01650562)
(0.490156 0.02607444 -0.0122388)
(0.4968198 0.02685677 -0.01172071)
(0.4957268 0.02663822 -0.01648442)
(0.5030964 0.02760105 -0.01590043)
(0.4854713 0.024601 -0.01958642)
(0.4952952 0.0267479 -0.02016679)
(0.5046268 0.02757233 -0.02010998)
(0.513333 0.02915721 -0.01890087)
(0.5028567 0.02713334 -0.01076652)
(0.5083359 0.02739454 -0.009382098)
(0.509874 0.02795573 -0.01494508)
(0.5160424 0.02838962 -0.0133754)
(0.5131343 0.02743661 -0.007656462)
(0.5172425 0.02768748 -0.005737199)
(0.5215485 0.02907407 -0.01178084)
(0.5265422 0.02946537 -0.009712993)
(0.521897 0.02914707 -0.01804502)
(0.5297268 0.02958075 -0.01647855)
(0.5367423 0.03010041 -0.01482328)
(0.5428424 0.03099881 -0.01297291)
(0.5204164 0.02778979 -0.003379786)
(0.5230922 0.02809944 -0.0004680372)
(0.5308523 0.02982455 -0.007420312)
(0.5346563 0.02998858 -0.004464241)
(0.5255205 0.02815281 0.003024465)
(0.5275757 0.02803794 0.006955986)
(0.5379167 0.03039895 -0.001226649)
(0.5407409 0.03091321 0.002456829)
(0.5482543 0.03153899 -0.01037136)
(0.5531249 0.03213064 -0.007827349)
(0.5571024 0.03205637 -0.004992887)
(0.560063 0.0328749 -0.001721138)
(0.4644802 0.01860257 -0.01013545)
(0.462036 0.01536403 -0.009849665)
(0.4671617 0.01863129 -0.01394548)
(0.4647502 0.0155973 -0.01387871)
(0.4602963 0.01306207 -0.00954334)
(0.4594389 0.0113306 -0.009310447)
(0.4631035 0.01333629 -0.01331622)
(0.4622963 0.01143119 -0.01312073)
(0.4713587 0.01878164 -0.01741904)
(0.46896 0.01592996 -0.01715572)
(0.4674958 0.01335512 -0.01660145)
(0.4665518 0.01155777 -0.01641544)
(0.474068 0.02074226 -0.01307363)
(0.485038 0.02385282 -0.01230731)
(0.469129 0.01620864 -0.01215844)
(0.478722 0.02030154 -0.01072782)
(0.4796575 0.02156035 -0.01853957)
(0.4877858 0.02390497 -0.01869506)
(0.4763128 0.01879237 -0.01799745)
(0.4834908 0.02098063 -0.01773853)
(0.4953962 0.02533485 -0.01786335)
(0.5026218 0.02674652 -0.01697576)
(0.4906868 0.02272206 -0.01706807)
(0.4973038 0.02435223 -0.01577049)
(0.4739745 0.01621112 -0.01715849)
(0.4808371 0.01876131 -0.01730917)
(0.4728531 0.01432341 -0.01709019)
(0.4791486 0.01686154 -0.0167275)
(0.4875321 0.02087005 -0.01620184)
(0.4937583 0.0227208 -0.01481707)
(0.4854336 0.01910429 -0.01569294)
(0.4912918 0.0211609 -0.01404371)
(0.4586781 0.009988711 -0.009018026)
(0.4585001 0.008886204 -0.008754356)
(0.4615676 0.01029944 -0.01287889)
(0.4611451 0.009109835 -0.01253856)
(0.4582232 0.007990635 -0.00847089)
(0.4582033 0.007014456 -0.008240462)
(0.4610088 0.008259384 -0.01233248)
(0.4607766 0.007272859 -0.01195808)
(0.4657501 0.01024832 -0.01613827)
(0.465509 0.009221728 -0.01582089)
(0.4652928 0.008315139 -0.01559404)
(0.4651125 0.007399029 -0.01534763)
(0.4668721 0.01335682 -0.01134019)
(0.4756399 0.01799115 -0.009641629)
(0.4662109 0.01113043 -0.01064423)
(0.47491 0.01600108 -0.008874099)
(0.4718067 0.01289112 -0.01655206)
(0.4779571 0.01539428 -0.01649081)
(0.4714615 0.01168094 -0.0164478)
(0.4773328 0.01416573 -0.01601978)
(0.4839768 0.01765056 -0.01520059)
(0.4897624 0.01988748 -0.01363397)
(0.4833568 0.01647594 -0.01503256)
(0.4890764 0.01887958 -0.01339141)
(0.4712689 0.01055566 -0.01610661)
(0.4772552 0.01298516 -0.01582006)
(0.4714379 0.009534675 -0.01614559)
(0.4774458 0.01179051 -0.01558396)
(0.4832214 0.01539033 -0.01468116)
(0.4890111 0.01787933 -0.01296955)
(0.4834614 0.01424436 -0.01453687)
(0.4894072 0.01680503 -0.0129157)
(0.4942614 0.0259199 -0.009857883)
(0.5018221 0.02752082 -0.005595576)
(0.4867528 0.02367181 -0.007390956)
(0.4931515 0.02689252 -0.002220907)
(0.5094301 0.02760255 -0.01564105)
(0.5157623 0.02836465 -0.01425994)
(0.5034114 0.02565291 -0.0142245)
(0.5089056 0.02688448 -0.01269262)
(0.5215585 0.02894659 -0.01233168)
(0.5265126 0.02990144 -0.00981395)
(0.5140358 0.02790427 -0.01053753)
(0.5183926 0.02911288 -0.007905837)
(0.4994107 0.02424601 -0.01292404)
(0.5044445 0.02574341 -0.01087358)
(0.4967792 0.02303958 -0.01211392)
(0.5018112 0.02495726 -0.01018829)
(0.5091562 0.02716439 -0.008719077)
(0.5131252 0.02874561 -0.00568588)
(0.5065042 0.02687861 -0.007633817)
(0.5105046 0.02893081 -0.004735114)
(0.5079163 0.02911232 0.0005700101)
(0.5131003 0.03077993 0.008974023)
(0.4982198 0.03025925 0.00523596)
(0.502703 0.03411302 0.01576066)
(0.5311787 0.03058468 -0.007223999)
(0.5352752 0.03167277 -0.004133693)
(0.5223316 0.03020034 -0.004906083)
(0.5258056 0.03154397 -0.001714249)
(0.5391021 0.03233897 -0.001130599)
(0.5423805 0.03373112 0.003019847)
(0.5289981 0.03285708 0.002319637)
(0.5321879 0.03464213 0.006208409)
(0.516683 0.03033851 -0.002552173)
(0.5197273 0.03220165 0.0012086)
(0.5140329 0.03100574 -0.001058732)
(0.5171979 0.03341113 0.002499252)
(0.5227868 0.03418276 0.005262932)
(0.5257646 0.03661107 0.009810221)
(0.5203828 0.03597362 0.007166696)
(0.5233062 0.03902042 0.01181139)
(0.4834086 0.02254572 -0.005942094)
(0.4898313 0.02731207 -6.380796e-05)
(0.4829941 0.02139748 -0.004964439)
(0.4901934 0.02759808 0.001424908)
(0.4951758 0.02205276 -0.01171347)
(0.500172 0.02435103 -0.009380329)
(0.4944994 0.02128652 -0.01133135)
(0.4996355 0.02381665 -0.00905877)
(0.5048786 0.02671666 -0.006729541)
(0.5088714 0.0291272 -0.003420116)
(0.5043638 0.02653355 -0.005935183)
(0.5085598 0.02942436 -0.003188168)
(0.4945883 0.02049868 -0.01096463)
(0.4998858 0.02334256 -0.008539024)
(0.4951718 0.01965196 -0.01063447)
(0.500708 0.02257483 -0.008285257)
(0.5048369 0.02627383 -0.005747408)
(0.5091346 0.02950813 -0.002405217)
(0.5058546 0.02575537 -0.005328155)
(0.5106438 0.02926074 -0.002479943)
(0.4952191 0.03268088 0.008674465)
(0.5006702 0.0394393 0.02124923)
(0.4971354 0.03532818 0.0110385)
(0.5053746 0.04582868 0.02457161)
(0.5126411 0.03173285 5.245704e-05)
(0.5159115 0.03464682 0.004151078)
(0.5125163 0.03259119 0.001129122)
(0.5161875 0.03612353 0.004898745)
(0.5193465 0.03781491 0.008403379)
(0.5226321 0.04165869 0.01341373)
(0.5202565 0.03997731 0.009797735)
(0.5240362 0.04454475 0.01505888)
(0.5134291 0.03308991 0.001380792)
(0.5173883 0.0371578 0.005813645)
(0.5153902 0.03336004 0.001907361)
(0.5199562 0.03807342 0.005871031)
(0.5218823 0.04173394 0.01040558)
(0.5267418 0.04698305 0.01559081)
(0.5250983 0.04351989 0.01102625)
(0.5307424 0.04988059 0.01558716)
(0.529147 0.02776629 0.01159917)
(0.530824 0.02798234 0.01676667)
(0.5432604 0.03114012 0.006308208)
(0.5454868 0.03115955 0.01099866)
(0.5321998 0.02751088 0.02262227)
(0.5334705 0.02734341 0.02910255)
(0.5473409 0.03155811 0.01559967)
(0.5494586 0.03296219 0.02105745)
(0.562902 0.03325717 0.001580549)
(0.5651026 0.03400528 0.005893173)
(0.5670168 0.0348373 0.01001305)
(0.5687485 0.03631007 0.01554894)
(0.5345785 0.02662708 0.03654103)
(0.5363204 0.02677694 0.04421265)
(0.5511129 0.0334051 0.02679475)
(0.5528272 0.03423947 0.0334834)
(0.5700546 0.03682028 0.01957984)
(0.5709116 0.03859042 0.02530027)
(0.5718593 0.03967996 0.03052283)
(0.5181538 0.03277831 0.02015379)
(0.5238483 0.03546362 0.03404067)
(0.507647 0.03906908 0.03010527)
(0.5145946 0.04622472 0.0479843)
(0.5456823 0.03492682 0.006813298)
(0.5489878 0.03682251 0.0114196)
(0.5354719 0.03661835 0.01104352)
(0.5384089 0.03909949 0.01614131)
(0.5520776 0.03831759 0.01714189)
(0.5554262 0.04078233 0.02232612)
(0.5416663 0.04149406 0.02192119)
(0.5454519 0.04489275 0.02699614)
(0.5288278 0.03909439 0.01527522)
(0.5315696 0.04210473 0.02135987)
(0.5263741 0.04227956 0.01812791)
(0.5296733 0.04621156 0.02364546)
(0.5350859 0.04565949 0.02681749)
(0.5391413 0.0500438 0.03325032)
(0.5336855 0.05114917 0.03029314)
(0.5381353 0.05682648 0.03658284)
(0.5309973 0.0398249 0.05063732)
(0.5245994 0.05806587 0.06826059)
(0.5376248 0.07984305 0.09076872)
(0.5591174 0.04298695 0.02729099)
(0.5625474 0.04632123 0.03427835)
(0.5496657 0.0485322 0.03334323)
(0.5539572 0.0528088 0.03952385)
(0.5661939 0.04920454 0.03893012)
(0.5589694 0.05802526 0.04522959)
(0.5644121 0.06393282 0.05073882)
(0.5436584 0.05490272 0.04026492)
(0.5487817 0.06085135 0.04625388)
(0.5434734 0.06381215 0.04341162)
(0.54923 0.07160638 0.04991136)
(0.5539517 0.06834244 0.05303589)
(0.5600427 0.07650791 0.05835086)
(0.5549686 0.08223257 0.05488614)
(0.5614815 0.0931511 0.0595924)
(0.5079713 0.04878303 0.03816929)
(0.5195834 0.06312618 0.05701935)
(0.518019 0.06056169 0.0413925)
(0.5374711 0.08571537 0.0566641)
(0.5262535 0.04579675 0.01997047)
(0.5303654 0.050904 0.02605274)
(0.528291 0.04993616 0.02104382)
(0.5333258 0.05631428 0.0267672)
(0.5352789 0.05688122 0.03273457)
(0.5409722 0.06382059 0.0390248)
(0.5391761 0.06399935 0.03334953)
(0.5458244 0.0726227 0.03910482)
(0.5322161 0.05338119 0.02151942)
(0.5386581 0.06089454 0.02730363)
(0.537337 0.05754177 0.02089477)
(0.5447885 0.06593107 0.02644059)
(0.5459982 0.06967095 0.03203938)
(0.5548188 0.07945618 0.03682729)
(0.5530709 0.07647625 0.02977048)
(0.5631804 0.08742453 0.03200267)
(0.5354626 0.09041544 0.07689823)
(0.5610851 0.127239 0.08996257)
(0.5647043 0.1290527 0.06149561)
(0.6001589 0.1693232 0.04479226)
(0.5469356 0.07250599 0.04537375)
(0.5542584 0.08215322 0.04988804)
(0.5530043 0.08413307 0.04329222)
(0.5610716 0.0960692 0.0473858)
(0.5605243 0.09577149 0.05234485)
(0.5675715 0.1087262 0.05460312)
(0.5674198 0.1125657 0.04735115)
(0.5745939 0.1272753 0.04638638)
(0.563167 0.09302934 0.03762397)
(0.5727759 0.1059913 0.03774193)
(0.5720564 0.1025817 0.03058116)
(0.5818444 0.1164249 0.02765094)
(0.5803233 0.122955 0.03345807)
(0.5877691 0.1377905 0.02792893)
(0.5896664 0.1330105 0.02016784)
(0.5971087 0.1465147 0.01121732)
(0.559622 0.1046429 0.1091085)
(0.565068 0.0874439 0.0619009)
(0.5713094 0.09809952 0.06529779)
(0.5667279 0.1073671 0.06280936)
(0.5728292 0.1203512 0.06469749)
(0.5788592 0.1348538 0.06477727)
(0.5983876 0.1523553 0.09032477)
(0.6366479 0.1621062 0.08128546)
(0.6328992 0.1916376 0.01447381)
(0.6548973 0.1990916 -0.01750205)
(0.5736866 0.1246763 0.05316496)
(0.5806482 0.138479 0.05272434)
(0.580804 0.1445718 0.04245545)
(0.5877245 0.1585669 0.03839386)
(0.5878736 0.1528222 0.04854863)
(0.5951839 0.1641555 0.04511566)
(0.5947454 0.1722443 0.03157997)
(0.601679 0.1822449 0.0256996)
(0.5943762 0.1535392 0.01907862)
(0.6003546 0.1660675 0.01074401)
(0.6034077 0.1591357 -0.001252611)
(0.6084179 0.1684433 -0.01224115)
(0.6057105 0.1773106 0.001079096)
(0.6099613 0.185658 -0.007669562)
(0.6124302 0.1759956 -0.02488865)
(0.6149326 0.1810784 -0.03604813)
(0.6667233 0.1971074 -0.04443874)
(0.6138357 0.1924404 -0.01736963)
(0.6173511 0.1972341 -0.02659293)
(0.6171692 0.184343 -0.04741517)
(0.6183563 0.1865461 -0.05724368)
(-0.032646 -1.496381 0.06338724)
(0.01287322 -2.525447 0.07830829)
(-0.014983 -1.746977 0.08052969)
(0.02343346 -2.487855 0.08078044)
(0.004938078 -1.72651 0.08510542)
(0.01291448 -2.814617 0.06175902)
(-0.02549606 -2.1098 0.06572912)
(0.01933101 -2.774443 0.06301001)
(-0.007903106 -2.079027 0.07296977)
(0.001137423 -0.9509396 0.1132188)
(0.03732962 -0.5712319 0.07953109)
(-0.01108619 -1.109784 0.08372052)
(-0.02369104 -1.136656 0.09415263)
(-0.005699985 -0.7269432 0.07330241)
(0.03103555 -0.8794421 0.09425161)
(0.1049289 -0.3138097 0.1063436)
(0.1359065 -0.1430354 0.1026854)
(0.08999028 -0.3569694 0.1218637)
(0.1372239 -0.1603763 0.1207425)
(0.07339654 -0.407756 0.09816942)
(0.1076631 -0.2009548 0.0898542)
(0.06860536 -0.4416693 0.1019363)
(0.1097237 -0.2244021 0.1141662)
(-0.01572733 -1.302029 0.07790909)
(-0.03839708 -1.313248 0.08225658)
(-0.01585722 -0.8634279 0.0678285)
(-0.02806715 -1.455512 0.06600234)
(-0.04339001 -1.470205 0.06782882)
(-0.03456682 -1.002477 0.06346871)
(0.01936474 -0.5939199 0.05936149)
(-0.01553717 -1.183274 0.07168423)
(0.06757971 -0.4334846 0.06974378)