/*--------------------------------*- C++ -*----------------------------------*\
| =========                 |                                                 |
| \\      /  F ield         | OpenFOAM: The Open Source CFD Toolbox           |
|  \\    /   O peration     | Version:  2206                                  |
|   \\  /    A nd           | Website:  www.openfoam.com                      |
|    \\/     M anipulation  |                                                 |
\*---------------------------------------------------------------------------*/
FoamFile
{
    version     2.0;
    format      ascii;
    arch        "LSB;label=32;scalar=64";
    class       volScalarField;
    location    "10000/fluid_0";
    object      k;
}
// * * * * * * * * * * * * * * * * * * * * * * * * * * * * * * * * * * * * * //

dimensions      [0 2 -2 0 0 0 0];

internalField   nonuniform List<scalar> 
43250
(
1e-15
1e-15
6.149612e-14
6.891399e-14
1.391968e-14
1.226323e-13
1.182175e-12
3.554214e-11
1.13894e-09
3.694586e-08
1.181718e-06
4.482605e-07
8.355375e-08
1.4421e-06
5.660099e-08
1.709163e-09
4.476895e-09
1.313773e-07
1.120426e-07
5.574684e-09
1.617445e-09
2.796755e-08
5.399935e-07
3.051787e-06
3.757403e-06
6.411147e-06
8.165267e-06
8.61012e-06
8.433427e-06
7.840257e-06
7.986086e-06
8.254767e-06
8.441827e-06
8.645146e-06
8.575309e-06
1.592297e-10
3.168564e-10
8.603197e-06
2.715634e-05
9.365763e-06
7.779392e-06
6.045233e-06
9.092684e-07
3.122617e-08
6.943458e-08
9.333022e-08
3.431559e-06
2.766199e-06
1.281596e-08
7.089589e-10
1.398983e-09
5.982194e-09
3.878383e-07
3.613828e-06
9.61186e-07
3.954402e-07
5.330561e-10
6.45821e-12
1.477814e-10
6.907656e-09
2.153084e-07
5.471466e-11
6.257897e-12
1.374411e-11
7.986006e-12
8.777544e-12
9.403769e-12
5.877873e-11
2.515827e-09
1.234085e-07
2.496545e-06
5.630054e-06
5.889966e-06
9.329515e-06
1.0327e-05
3.080537e-06
1.166863e-07
2.396348e-08
4.489774e-07
4.372581e-06
6.277599e-06
2.740746e-07
4.366825e-08
8.558759e-07
2.656629e-05
1.87852e-05
3.400903e-09
1.209981e-07
1.640463e-07
6.279067e-11
2.711369e-11
5.290789e-10
1.003356e-08
2.898764e-07
5.026931e-10
2.207962e-09
8.34022e-09
3.423461e-08
1.630124e-07
6.498472e-07
1.141332e-05
2.476857e-05
1.402117e-05
1.098193e-05
1.128804e-06
3.324411e-07
1.007078e-09
3.221053e-11
1.095913e-11
7.504431e-10
3.70769e-08
1.724952e-07
1.543471e-06
8.725415e-06
1.020153e-05
9.214439e-06
9.478116e-06
9.502911e-06
8.39936e-06
8.046791e-06
5.596738e-06
5.455166e-06
7.794021e-06
7.7292e-06
7.349314e-06
7.044675e-06
8.576707e-06
1.313169e-06
4.211728e-07
1.453807e-06
2.065373e-06
5.124576e-06
7.136935e-06
6.697903e-06
3.308678e-07
3.384196e-12
8.29536e-12
6.979573e-13
9.506763e-13
7.931577e-13
7.912554e-13
1.743989e-12
1.465508e-11
1.500957e-10
1.005068e-08
1.288524e-07
2.478141e-06
6.207293e-06
8.6019e-07
3.02798e-08
3.518306e-09
1.522887e-08
1.479497e-07
2.509919e-06
5.840382e-06
7.801949e-06
8.173005e-06
5.94008e-06
8.29725e-06
5.9609e-06
8.737075e-08
1.855171e-06
5.442312e-06
1.163917e-05
1.039538e-05
8.94763e-06
8.790019e-06
8.059025e-06
9.699028e-11
5.925013e-12
6.607462e-13
8.002721e-13
1.968616e-12
1.054881e-10
8.355018e-09
5.387075e-08
9.588215e-09
1.284551e-08
4.925002e-10
7.781414e-10
2.73059e-09
2.116309e-07
1.219798e-06
4.116636e-06
5.141357e-06
6.945514e-06
1.592398e-07
5.394026e-09
1.593315e-09
1.933921e-10
3.241226e-11
2.817035e-11
3.264992e-11
4.464401e-11
6.706516e-11
2.355274e-10
1.80987e-10
9.157597e-10
6.225319e-09
7.146765e-08
1.402597e-06
4.802582e-06
9.804421e-06
7.768963e-06
6.773916e-06
8.07072e-06
4.840177e-07
6.488627e-06
6.457284e-06
8.351373e-06
8.661478e-06
5.707468e-06
3.902869e-06
2.44018e-07
7.948318e-09
1.722542e-09
1.744115e-09
3.706895e-09
2.808676e-08
2.232148e-07
1.731037e-06
6.263576e-06
9.25717e-06
1.014695e-05
8.132131e-06
9.624273e-06
9.163236e-06
8.072919e-06
8.44827e-06
8.029586e-06
8.140249e-06
8.846377e-06
9.077875e-06
9.260692e-06
9.340847e-06
9.466048e-06
9.723311e-06
5.42767e-08
1.90581e-09
1.5539e-10
4.913799e-12
1.179641e-12
9.0528e-11
6.118818e-09
1.986962e-08
5.146326e-08
3.036754e-08
8.776224e-09
3.596356e-07
9.331857e-07
1.318889e-06
4.511173e-08
1.533688e-07
3.126583e-08
6.17349e-09
1.190645e-09
2.268944e-10
1.413634e-10
1.097504e-07
1.514101e-08
9.92977e-07
1.170608e-05
1.066472e-05
1.00413e-05
1.0575e-05
9.912189e-06
9.956074e-06
9.699722e-06
9.711615e-06
9.803996e-06
9.944174e-06
1.006355e-05
9.192859e-06
6.400699e-06
9.625049e-06
7.962588e-06
1.049417e-05
9.895944e-06
1.105954e-05
1.822166e-06
6.021947e-08
4.283414e-10
1.231917e-08
1.010805e-07
2.19256e-08
3.902922e-09
1.622211e-10
1.263651e-14
1.147982e-13
5.801715e-13
1.532652e-11
7.938344e-08
1.250413e-06
3.784765e-06
3.922065e-07
2.100242e-06
7.816627e-06
1.334292e-05
1.132765e-10
1.084395e-10
1.018237e-10
9.56584e-11
2.023058e-10
8.241594e-08
3.936636e-06
7.623679e-06
1.061757e-05
9.845028e-06
4.261354e-06
8.146862e-06
1.073161e-05
5.261906e-10
2.782206e-11
9.377247e-12
1.1943e-12
5.858021e-11
1.878892e-09
5.879264e-08
3.188227e-07
1.125564e-07
1.58904e-06
1.635352e-05
7.23281e-06
9.469389e-06
9.276426e-06
1.091354e-05
1.141514e-05
4.923468e-06
6.101722e-09
8.452615e-10
6.417201e-10
8.514969e-10
1.352524e-14
1.184808e-13
4.881283e-13
1.688507e-11
4.842089e-09
2.640829e-07
2.271896e-06
6.694049e-08
2.044479e-09
6.243855e-11
1.897943e-12
2.188505e-12
8.172668e-11
7.569459e-10
3.0772e-08
1.48267e-06
5.678103e-06
1.48821e-05
7.946792e-06
9.966537e-06
4.624227e-07
6.121199e-09
1.883493e-10
1.082395e-09
8.278643e-08
8.339001e-07
2.424597e-05
1.143618e-05
5.894798e-06
1.820829e-07
1.007505e-08
3.254201e-10
1.514061e-10
1.178891e-08
1.544202e-10
4.847936e-12
7.169684e-11
4.65437e-14
7.220528e-13
8.040976e-13
2.76419e-12
4.138048e-10
1.309609e-08
3.843891e-07
4.759559e-11
8.879795e-06
7.977123e-06
1.69327e-09
2.245609e-10
1.754122e-09
1.67465e-10
1.331192e-11
4.051612e-11
2.544138e-10
1.968065e-09
9.813345e-09
1.400506e-07
1.253739e-06
6.863464e-06
1.4591e-06
4.643621e-08
5.557454e-07
4.514538e-06
9.248028e-06
6.645913e-06
6.06721e-06
2.157679e-06
6.865334e-09
2.113832e-10
2.311629e-11
5.194438e-12
3.49491e-11
2.875342e-10
2.477159e-09
2.133638e-08
1.764769e-07
1.313516e-06
5.343383e-06
7.186497e-06
6.713286e-06
6.685202e-06
6.662612e-06
9.054001e-06
5.594359e-06
7.663024e-06
7.960034e-06
9.385954e-06
5.631964e-06
8.20222e-06
7.995438e-06
9.023186e-06
3.056015e-06
7.014145e-06
4.130773e-06
5.884418e-06
9.031302e-06
9.633233e-06
1.173503e-05
2.615233e-06
8.766608e-08
2.787022e-09
8.828206e-11
2.727499e-12
3.587105e-08
9.917266e-07
6.86227e-06
1.219214e-05
7.345308e-07
3.097588e-06
1.02795e-05
9.839886e-06
1.024429e-05
9.685951e-06
8.690979e-06
1.0782e-05
1.095359e-05
1.1675e-05
1.00798e-05
1.184646e-05
1.0071e-10
9.751687e-11
1.005611e-10
9.769969e-10
8.556546e-07
7.386186e-07
1.274049e-09
7.320267e-11
1.130821e-09
1.604859e-08
6.223946e-06
7.592619e-06
3.730946e-07
3.204146e-06
1.834776e-07
8.084988e-09
1.542831e-10
4.438281e-10
1.858531e-15
9.236868e-10
2.953487e-08
5.923549e-06
2.752475e-06
8.614941e-06
3.023707e-10
1.111395e-10
9.786622e-11
1.040493e-10
1.135634e-10
4.83024e-10
1.494521e-09
2.293808e-08
4.211571e-07
4.869022e-06
9.19482e-06
9.41076e-06
9.332302e-06
9.313343e-06
9.321628e-06
9.260107e-06
8.896939e-06
9.241509e-06
8.701167e-06
9.59115e-06
7.509635e-07
2.380923e-08
7.496054e-10
2.301607e-11
2.472027e-11
1.792853e-09
6.048534e-08
4.902796e-06
5.98597e-06
8.957703e-06
9.371302e-06
9.017967e-06
8.846356e-06
8.677667e-06
8.539813e-06
7.432632e-06
1.034528e-05
8.981521e-06
1.022791e-05
8.732536e-06
9.463607e-06
6.102361e-08
3.700143e-08
9.449995e-12
2.379128e-13
7.347344e-15
1e-15
3.285605e-10
1.052357e-08
6.238318e-06
6.391767e-06
1.945637e-05
1.120349e-05
9.385352e-06
8.925339e-06
8.318715e-06
9.266466e-06
8.770693e-06
9.423941e-06
9.603917e-06
7.484258e-06
1.36398e-07
4.14254e-09
2.520436e-08
1.009276e-06
6.679109e-06
8.706902e-06
8.718825e-06
9.2475e-11
8.831221e-11
9.093737e-11
8.379608e-11
2.45326e-09
3.049852e-07
2.332227e-08
4.517732e-08
5.70379e-12
5.741621e-14
1.314094e-12
2.860133e-11
8.453925e-10
2.515034e-08
8.670503e-07
2.540234e-11
6.378369e-11
1.039901e-10
2.200787e-10
9.563057e-08
3.771684e-07
7.820524e-09
4.979131e-08
2.555665e-07
1.321438e-06
2.572367e-06
8.417441e-07
1.714142e-07
9.959181e-09
5.367214e-12
3.937108e-13
1.379548e-08
4.02658e-07
9.086472e-07
2.105308e-08
6.348075e-11
1.96742e-12
1.00106e-13
1.796452e-13
1.000043e-13
3.930276e-13
6.393878e-12
1.299318e-10
2.812311e-09
6.526888e-08
2.703188e-06
1.634389e-08
5.704449e-11
7.899389e-11
9.087676e-11
9.115952e-11
9.148197e-11
9.120758e-11
9.213175e-11
3.056514e-05
1.358149e-05
9.494081e-06
9.044196e-06
8.911215e-06
9.017529e-06
9.226844e-06
8.667923e-06
8.624033e-06
7.77676e-06
8.69749e-06
8.963762e-06
8.681764e-06
8.715907e-06
8.600559e-06
8.689353e-06
8.599367e-06
8.563231e-06
7.928235e-06
8.312496e-06
5.147623e-07
6.706995e-08
3.361769e-07
1.596545e-06
3.243703e-07
6.097679e-08
8.769766e-09
5.82228e-10
6.927366e-09
1.184892e-07
1.947389e-06
1.782761e-05
6.385187e-06
1.117232e-05
9.972622e-06
9.420281e-06
9.608934e-06
9.625233e-06
9.692722e-06
9.685461e-06
9.748241e-06
9.755191e-06
9.681577e-06
1.088879e-05
8.857904e-06
1.02934e-05
1.021466e-05
9.376267e-06
9.212754e-06
9.362078e-06
9.635523e-06
9.905084e-06
9.765642e-06
9.891971e-06
1.018292e-05
7.745326e-07
3.867119e-08
3.91233e-09
7.795989e-09
2.175643e-08
8.142869e-08
4.413868e-08
1.41287e-09
1.774648e-09
2.410483e-09
3.475191e-09
5.162728e-09
1.373792e-09
1.226121e-08
2.987577e-09
5.83467e-09
9.026631e-09
1.414568e-08
1.604152e-08
3.769376e-08
6.133468e-08
9.700746e-08
1.225431e-06
7.694349e-06
1.102926e-05
1.142183e-05
1.114093e-06
7.012164e-06
1.091795e-05
1.132208e-05
1.135547e-05
1.134466e-05
1.136191e-05
1.139185e-05
1.141036e-05
1.13208e-05
1.120022e-05
1.096646e-05
1.080297e-05
1.044336e-05
1.051082e-05
9.248188e-06
1.105921e-05
5.90775e-06
1.903757e-05
3.331854e-07
0.000147188
5.008765e-10
7.549996e-10
8.812466e-11
2.882735e-11
1.395391e-11
8.704764e-12
1.558838e-10
1.487527e-07
1.560077e-06
8.222575e-07
6.60409e-08
2.28058e-07
4.367191e-06
2.00526e-09
1.789635e-08
2.979116e-09
5.168635e-10
9.839592e-11
2.282551e-11
6.542755e-12
4.152487e-10
5.225192e-09
1.052269e-09
3.359713e-10
2.762419e-09
2.734001e-08
5.130014e-07
0.0001508415
0.000131544
4.975855e-05
4.293403e-05
0.0004068483
0.00122579
0.002107834
0.003316501
0.003749127
0.003586996
0.00319673
0.002643665
0.002040467
0.001463255
0.0009682018
0.0005678402
0.0002778764
0.000104664
1.957195e-05
4.279281e-06
5.256739e-05
0.0001452148
0.000259176
0.0003722283
0.0004638173
0.0005419504
0.0002166186
1.868302e-05
1.045826e-06
6.203965e-08
2.694582e-08
1.934461e-08
2.293836e-08
1.309907e-08
4.948792e-07
3.623073e-07
3.51229e-07
3.413189e-08
7.033845e-10
2.437503e-11
8.185713e-13
1.82478e-12
3.087151e-11
1.851941e-10
1.157639e-08
8.431824e-08
3.630496e-08
5.345654e-07
1.665026e-09
1.714289e-10
6.476359e-11
2.615168e-10
5.07568e-10
1.09961e-09
3.588911e-09
3.537526e-08
1.512145e-06
4.379337e-06
6.128881e-06
9.345198e-07
1.903097e-06
1.259782e-07
3.21782e-09
4.671414e-10
2.711307e-09
8.149576e-08
7.929149e-07
3.010988e-06
2.856517e-06
2.479415e-06
1.59947e-06
2.713009e-07
8.729032e-07
9.554312e-06
2.142513e-05
1.555257e-05
9.354477e-07
8.859835e-06
5.29008e-10
6.50463e-10
6.255007e-10
5.22622e-10
4.095979e-10
3.301264e-10
2.603069e-05
1.816665e-05
1.338954e-05
1.072386e-05
2.943794e-06
5.620796e-07
1.932118e-06
1.656137e-06
1.194539e-06
7.189305e-07
5.363364e-07
6.484559e-07
1.047403e-09
3.008926e-12
4.98542e-12
8.83338e-13
4.690702e-13
4.532428e-13
7.890516e-13
6.193638e-12
5.430079e-11
3.891027e-09
1.326315e-07
1.997473e-06
1.61825e-06
2.151408e-07
1.973286e-06
6.233697e-09
2.220727e-10
9.283298e-12
1.717701e-12
2.55409e-13
8.478491e-12
5.564083e-10
1.357471e-08
6.596314e-08
4.117141e-07
1.741336e-06
4.677757e-06
9.021582e-06
6.709114e-06
6.088773e-06
5.522815e-06
4.378795e-06
5.921659e-07
8.211557e-08
1.029596e-06
4.347254e-06
3.711778e-09
1.233773e-10
4.167626e-12
7.24039e-14
1.013909e-11
1.581367e-10
3.222363e-09
8.396346e-08
1.408136e-08
8.16597e-10
1.449627e-08
3.23297e-07
9.884353e-06
6.084018e-06
7.087588e-06
1.016886e-05
1.369953e-06
5.975437e-08
1.947974e-09
1.731757e-08
1.112311e-08
7.765503e-08
9.766916e-07
4.601531e-06
1.244765e-05
7.599073e-06
7.286639e-06
8.273281e-06
7.713658e-06
7.02612e-06
7.91464e-11
7.115716e-12
6.82757e-13
2.101922e-12
1.292778e-10
2.362362e-09
2.048632e-09
2.265509e-10
1.133858e-09
9.445008e-09
1.60588e-08
3.960137e-07
1.822316e-05
1.251719e-05
6.708624e-06
7.402147e-06
6.352555e-06
4.742701e-06
3.05401e-06
5.344887e-07
7.269155e-12
2.233135e-13
6.621864e-12
6.018227e-15
1.551267e-09
5.152568e-08
5.058172e-06
5.097591e-06
7.624981e-06
7.52116e-06
7.797647e-11
7.887034e-11
3.753e-11
1.598756e-06
6.090892e-08
1.343484e-08
9.16364e-10
7.936792e-10
6.965679e-09
4.989898e-08
4.223915e-07
3.493339e-06
1.015335e-05
5.381599e-06
7.724733e-06
7.291595e-06
6.7779e-06
7.629537e-06
7.16455e-06
7.141202e-06
7.0394e-06
7.046766e-06
7.127304e-06
7.02657e-06
6.98168e-06
6.898055e-06
6.917909e-06
6.897096e-06
5.65195e-06
6.577603e-06
7.905028e-08
1.539727e-06
3.89676e-06
2.965222e-06
6.036321e-06
7.090106e-11
6.3036e-11
5.90244e-12
7.641439e-12
3.654158e-11
6.770684e-10
1.627521e-08
1.186045e-06
8.754528e-09
1.094163e-07
1.899991e-06
4.862883e-06
7.557137e-06
6.946982e-06
7.132876e-06
7.56418e-06
7.484556e-06
8.350941e-06
9.808536e-07
1.369591e-06
5.127141e-06
8.314252e-06
6.024357e-06
6.742943e-06
4.459743e-06
6.128911e-06
7.510955e-11
6.651746e-12
5.515357e-13
7.924885e-14
8.228432e-14
4.860301e-13
1.147974e-11
3.234603e-10
7.101496e-09
3.867291e-09
2.125379e-10
7.260731e-12
2.866788e-10
3.829909e-09
1.529662e-07
1.663998e-06
1.403325e-05
3.950007e-06
5.518761e-06
5.449598e-06
3.550675e-07
3.420112e-07
4.906695e-08
2.121276e-08
7.706977e-08
1.485506e-06
2.560205e-06
4.014142e-06
4.913599e-06
4.953866e-06
4.714941e-06
5.703303e-06
5.767386e-06
5.878944e-06
4.924451e-06
9.145284e-08
1.421325e-10
5.233144e-12
1.030684e-12
9.907098e-14
2.469179e-13
1.535809e-12
2.928512e-11
6.24304e-10
3.242524e-07
3.203192e-06
3.424757e-05
4.783188e-06
3.516724e-07
1.996543e-07
6.214434e-07
5.556101e-06
8.800103e-06
4.870266e-06
2.347943e-06
2.7331e-06
1.12015e-06
6.462545e-07
2.730201e-07
1.168733e-07
4.949046e-08
2.567205e-08
5.462937e-08
8.524078e-10
1.675114e-08
3.163674e-07
3.047158e-06
8.162839e-09
2.883334e-10
1.021786e-11
1.332768e-12
1.019864e-12
1.019317e-12
1.530667e-12
1.904315e-11
1.087286e-09
1.627869e-07
2.175649e-06
4.849817e-07
1.198456e-08
2.361229e-09
7.88232e-11
1.875938e-09
5.953124e-08
5.630358e-06
4.616132e-07
3.473331e-09
3.528479e-08
4.149017e-07
2.003972e-07
8.507154e-08
5.137128e-08
1.608063e-08
2.215444e-08
7.274459e-09
3.051425e-07
1.194589e-06
3.235918e-06
5.913875e-06
6.486258e-06
2.372131e-06
4.953961e-07
9.715183e-08
8.643288e-11
7.49618e-12
5.620528e-08
2.287908e-08
3.813003e-11
4.894262e-08
1.478538e-08
9.413343e-11
6.980943e-09
2.54731e-08
6.880783e-08
1.621973e-08
1.274772e-07
9.6769e-07
1.048825e-05
6.1526e-07
1.372825e-09
4.261424e-11
6.266168e-12
5.636093e-13
2.96615e-12
2.102796e-11
1.77064e-10
3.052742e-10
3.198059e-09
1.151967e-07
7.535577e-08
1.432927e-06
1.070009e-05
3.437266e-06
7.033869e-06
7.645134e-07
4.340955e-06
8.397575e-06
5.500567e-06
6.926363e-06
6.091155e-06
6.671142e-06
6.418758e-06
6.646988e-06
6.920904e-06
7.208446e-06
7.242302e-06
7.366228e-06
7.370491e-06
7.454322e-06
7.632731e-06
7.80808e-06
8.509786e-06
7.343825e-06
5.741745e-06
4.581733e-07
6.187659e-08
5.251909e-09
1.25385e-06
4.843106e-06
7.37781e-06
3.883963e-06
7.86511e-06
9.745227e-06
9.13252e-06
8.331216e-06
8.313853e-06
8.104274e-06
8.692203e-06
9.106506e-06
7.240744e-08
3.826878e-09
1.504209e-07
8.994386e-06
2.695195e-07
9.456354e-09
1.286191e-09
1.141341e-10
9.416086e-09
8.889858e-08
2.052268e-07
9.727014e-08
6.950494e-07
7.392257e-06
4.376561e-06
7.798003e-06
8.797524e-06
8.189616e-06
8.424959e-06
7.060387e-06
3.952665e-06
1.450202e-07
4.448119e-09
1.385522e-10
1.882363e-08
5.343613e-07
4.237464e-06
7.981903e-07
1.842832e-07
4.31241e-07
2.190776e-06
6.634276e-06
8.195869e-06
8.502463e-06
7.795683e-06
8.222309e-06
2.825732e-06
6.843386e-06
5.88725e-11
7.300192e-12
7.053961e-12
1.116584e-11
9.256832e-12
2.742762e-11
1.537526e-09
2.091227e-07
3.105449e-06
1.167221e-05
2.441033e-06
7.303602e-06
1.04549e-05
5.357734e-06
7.455665e-06
8.226492e-06
5.574641e-06
5.869888e-07
2.474032e-06
3.66287e-11
3.580589e-12
1.348017e-11
7.065573e-12
7.596171e-12
7.446099e-12
1.538408e-11
5.115957e-10
1.635825e-08
4.21369e-07
1.289292e-10
8.242865e-11
8.450244e-10
6.218503e-07
6.35352e-07
2.745868e-06
1.040236e-05
7.849505e-06
7.217533e-06
7.300162e-06
7.791943e-06
7.306358e-06
2.985721e-06
1.462012e-07
1.566719e-07
9.740534e-07
6.229245e-06
5.648993e-06
1.147799e-06
4.906025e-09
1.123841e-10
1.0836e-10
7.304105e-09
2.565004e-08
7.470552e-08
5.523993e-08
1.020119e-06
4.026522e-06
1.039148e-05
7.387676e-06
4.338226e-09
1.581006e-10
6.939525e-12
8.400582e-13
1.120786e-13
3.613508e-13
2.142622e-12
1.701974e-11
2.175813e-11
2.107653e-10
2.080235e-09
6.581722e-08
3.517562e-06
3.830582e-06
2.104772e-06
9.180873e-08
5.461517e-07
8.222425e-09
4.121851e-13
3.084284e-13
8.328398e-13
6.661651e-13
7.021983e-13
5.284233e-12
4.238435e-10
1.34534e-08
4.746751e-07
1.856829e-07
6.060776e-10
3.380075e-09
3.261635e-11
7.47894e-14
4.227261e-12
5.968715e-11
1.775318e-09
1.185171e-08
4.674502e-07
3.369887e-06
1.082213e-05
5.617333e-06
6.911657e-06
6.666032e-06
7.571512e-06
7.032879e-06
6.879318e-06
7.072311e-06
7.085958e-06
1.035168e-05
2.107884e-10
3.393199e-11
1.159951e-11
4.262538e-11
6.581133e-10
1.267986e-11
5.0052e-11
8.769367e-11
2.092902e-10
1.236413e-09
5.6039e-08
1.369299e-06
2.759857e-05
1.098908e-06
4.57265e-07
7.908246e-07
1.123432e-09
3.491887e-11
1.091247e-12
3.393247e-14
1.064418e-15
1e-15
1.274841e-10
4.104924e-09
4.56699e-07
2.115034e-06
5.758951e-06
3.942978e-08
1.171056e-08
9.978166e-09
2.103392e-09
1.156474e-12
7.121326e-12
5.033458e-10
1.637629e-08
6.175764e-07
6.118403e-06
1.076641e-06
8.477105e-08
6.171775e-06
3.292072e-06
4.399321e-08
5.585226e-09
1.346177e-08
2.592094e-09
6.101871e-14
1.652303e-13
4.044903e-12
3.202567e-10
5.680537e-08
8.438e-07
5.64948e-06
1.685428e-05
1.017862e-05
1.178122e-05
9.325801e-06
2.258095e-06
4.328512e-10
1.076985e-11
2.865592e-10
4.137426e-14
8.545322e-13
7.574276e-13
4.807784e-12
1.237512e-08
3.156287e-10
2.477474e-12
9.492186e-13
2.817277e-13
1.092118e-13
5.332473e-13
9.740484e-12
1.927278e-10
1.707291e-08
3.163152e-07
3.137278e-06
8.964374e-06
5.145031e-07
1.29065e-08
8.584418e-08
5.179632e-07
3.3998e-05
1.101603e-05
2.703032e-06
1.411737e-07
1.679979e-06
4.581722e-06
1.016218e-05
7.746181e-06
5.582992e-06
6.9639e-06
4.37227e-09
5.039038e-10
9.376718e-09
1.231986e-06
1.758799e-06
2.228473e-06
1.192287e-06
2.169921e-06
5.486535e-06
5.340386e-06
6.006589e-11
8.884011e-11
7.214609e-11
7.553259e-11
6.82118e-11
5.941324e-11
3.152989e-10
1.01921e-06
2.72987e-06
6.827051e-06
7.78635e-06
6.962055e-06
7.271865e-06
7.317866e-06
1.374708e-10
7.938645e-06
7.589289e-06
7.434149e-06
7.214927e-06
5.909892e-06
7.239434e-06
7.269643e-06
7.26349e-11
7.428071e-12
1.122318e-11
7.374115e-11
8.179335e-10
2.289435e-08
1.103341e-07
1.196595e-06
5.467707e-06
7.325464e-11
2.089145e-10
3.33927e-09
4.750732e-07
3.700539e-06
5.99839e-06
7.441401e-06
7.444844e-06
7.123226e-06
7.401214e-06
6.974789e-06
7.643271e-06
7.821726e-06
7.867165e-06
7.905606e-06
7.563233e-06
8.20745e-06
8.517541e-06
7.681448e-06
7.032106e-06
7.032582e-06
4.702288e-06
8.822298e-06
6.427975e-06
7.323987e-06
5.264596e-06
8.404553e-06
7.781725e-06
6.931105e-11
8.363002e-11
7.616816e-11
1.765935e-11
9.136524e-07
3.766968e-08
1.203718e-08
3.065371e-07
8.704709e-07
2.482615e-06
6.651724e-06
7.124897e-11
7.003017e-11
7.743067e-11
7.64078e-11
1.390954e-10
5.475516e-09
3.980293e-07
1.605225e-05
3.038765e-10
2.34719e-09
8.251838e-06
7.829665e-06
7.733306e-06
7.887103e-06
7.542687e-06
4.581716e-07
2.438456e-09
4.533457e-10
6.836758e-11
4.98767e-10
4.108041e-09
3.476709e-08
2.750132e-07
3.644434e-06
7.133945e-06
3.842237e-06
3.445406e-08
4.878163e-09
3.502548e-08
9.52834e-08
2.626185e-07
3.544138e-06
4.152216e-06
6.165777e-07
8.115199e-07
1.67766e-06
3.94904e-06
7.826777e-06
9.617424e-06
1.201991e-06
6.015616e-06
7.411344e-06
9.57958e-06
7.890996e-06
7.022979e-06
6.68317e-06
7.077143e-06
8.938515e-06
9.001689e-06
6.632579e-06
4.312877e-06
6.310336e-06
7.701904e-06
6.62319e-06
7.760737e-06
7.930154e-06
8.76237e-06
2.561711e-06
9.187099e-08
1.065844e-08
1.782865e-09
1.011181e-07
4.324462e-07
1.896144e-06
3.138942e-06
8.431277e-06
3.913825e-06
1.605784e-07
5.019067e-09
6.117587e-11
1.345005e-09
2.657588e-08
4.485516e-07
3.381812e-06
1.575053e-05
6.486417e-06
8.315691e-06
7.854316e-06
8.894967e-11
3.031428e-13
1.52298e-14
9.463198e-15
1.033139e-15
1.104533e-14
1e-15
1.981719e-12
6.686573e-12
1.597573e-08
1.547558e-07
3.302113e-07
8.712834e-07
4.737231e-06
9.19641e-06
7.702688e-06
7.981741e-06
7.229412e-06
8.094401e-06
8.230442e-06
8.063732e-06
8.276676e-06
7.677852e-06
3.173489e-09
2.572476e-09
1.148518e-08
1.668451e-08
9.01417e-09
3.519646e-08
1.37989e-07
5.719216e-07
6.634977e-06
7.243289e-06
2.942062e-06
4.354796e-06
6.432987e-06
7.31521e-06
7.514362e-06
7.450899e-06
7.420276e-06
7.415301e-06
7.391261e-06
6.713512e-06
7.063222e-06
7.363315e-06
7.480747e-06
7.551237e-06
7.519667e-06
7.521951e-06
7.603675e-06
7.583314e-06
7.506827e-06
7.570359e-06
7.973482e-06
6.77771e-06
7.333952e-06
7.464152e-06
8.23773e-06
9.302864e-06
7.875791e-06
9.215509e-06
8.766313e-06
7.989634e-06
8.242652e-06
4.542647e-06
5.103756e-07
2.177197e-06
6.15897e-06
7.258011e-06
9.01084e-11
1.022233e-11
8.040739e-12
7.644224e-12
7.638628e-12
1.018549e-11
6.349646e-11
1.175969e-09
2.408012e-08
5.153406e-07
1.091585e-05
1.312885e-06
1.369955e-06
3.724887e-06
6.082771e-06
6.511844e-06
6.573186e-06
6.620862e-06
6.565443e-06
6.569744e-06
6.568005e-06
6.512958e-06
6.442629e-06
6.379279e-06
6.299242e-06
6.27744e-06
6.230342e-06
6.274329e-06
6.35974e-06
6.314618e-06
6.317066e-06
6.357522e-06
6.370692e-06
6.360914e-06
6.399019e-06
6.406462e-06
6.507319e-06
6.631015e-06
6.613014e-06
6.659661e-06
6.723604e-06
6.760031e-06
6.750904e-06
6.819256e-06
6.82123e-06
6.962875e-06
7.132263e-06
7.105109e-06
7.262581e-06
7.451581e-06
7.577727e-06
7.738692e-06
7.902167e-06
8.038391e-06
8.166688e-06
8.296685e-06
8.411979e-06
8.561169e-06
8.66654e-06
8.909613e-06
9.093222e-06
9.753257e-06
9.446736e-06
1.234863e-05
8.338111e-06
2.698468e-05
3.233474e-07
0.0003126778
0.0001569298
2.319524e-06
1.258339e-08
4.754899e-06
1.708315e-06
4.873128e-08
1.343009e-09
8.784227e-11
2.649604e-11
2.976062e-12
1.207576e-11
1.51549e-10
2.352027e-09
2.609328e-08
7.764082e-07
8.010811e-06
1.155398e-05
1.809905e-05
1.456787e-05
1.410889e-05
1.848481e-05
1.626036e-05
1.928585e-05
1.928525e-05
1.698765e-05
1.506418e-05
1.44162e-05
1.785558e-05
1.708e-06
1.258572e-07
2.682547e-07
9.359423e-12
9.341129e-12
4.990495e-13
1.89869e-11
1.487524e-11
1.424028e-11
1.429965e-11
1.715271e-11
6.683099e-11
9.178101e-10
1.648134e-08
3.212815e-07
6.282778e-06
4.959175e-06
2.221095e-06
9.968533e-06
1.203953e-05
1.423859e-05
1.323159e-05
1.333613e-10
1.381609e-11
1.405189e-11
1.547166e-11
2.185605e-11
4.657071e-11
1.367916e-10
2.346903e-10
4.268274e-10
1.018002e-09
2.518876e-09
1.105671e-08
1.939066e-07
2.6875e-06
7.826269e-09
2.517888e-10
2.588223e-10
4.568937e-10
4.780826e-10
1.845963e-08
1.830369e-06
3.477837e-06
1.378026e-07
1.459015e-08
4.960052e-07
3.34878e-06
1.127947e-05
1.798573e-05
1.347159e-05
1.370878e-05
1.373765e-05
1.446115e-05
1.535722e-05
3.818963e-06
1.427272e-06
3.852933e-06
8.041123e-06
2.0549e-08
7.115716e-10
1.503211e-11
1.816826e-12
2.918764e-13
9.353605e-12
5.703895e-10
4.380798e-09
5.076824e-08
2.769531e-07
1.778099e-10
3.78198e-11
1.658013e-10
1.190131e-10
7.962493e-11
1.333294e-07
6.679422e-08
4.674456e-09
2.145624e-07
1.014632e-06
4.387666e-06
1.491782e-05
9.788234e-06
8.688355e-06
3.498536e-07
5.685245e-06
7.659919e-06
1.269846e-05
9.445428e-06
5.713481e-06
2.609781e-06
1.155834e-06
8.724165e-07
1.305376e-10
1.229973e-10
1.352906e-10
1.352592e-10
1.559065e-10
1.373537e-10
3.868291e-10
5.610183e-07
2.523317e-08
4.438421e-10
1.977222e-11
6.291554e-13
3.392815e-12
1.486091e-11
6.525396e-10
3.059364e-08
4.787795e-07
4.880585e-06
8.147149e-06
6.700255e-06
1.471821e-05
1.314032e-05
4.313875e-06
2.750962e-07
1.059056e-08
3.417121e-09
1.102511e-07
2.885863e-08
7.576472e-10
9.779561e-10
1.418761e-08
3.77457e-07
7.89695e-06
8.511653e-06
2.498272e-08
1.0746e-09
3.743774e-11
1.248756e-12
3.34832e-12
1.133488e-10
2.873853e-09
7.389478e-08
8.557103e-06
8.855488e-08
4.481827e-07
3.145812e-06
1.203277e-05
6.377993e-06
3.551824e-06
1.299124e-08
8.823758e-10
3.99849e-09
2.742954e-08
2.816199e-07
4.685061e-06
2.215821e-06
1.532251e-06
2.7454e-07
6.40337e-06
1.315528e-05
4.68602e-07
1.610004e-06
2.646728e-07
1.410496e-08
5.504237e-09
1.58558e-07
1.678308e-07
3.825224e-06
1.859347e-07
4.65633e-07
2.017254e-06
9.746424e-06
1.635813e-05
1.109546e-05
4.28558e-06
5.660929e-06
2.106889e-06
1.07824e-07
1.619894e-09
1.409237e-09
1.314757e-07
3.345108e-06
1.311883e-08
6.511092e-10
8.05693e-08
4.227518e-07
7.708045e-06
1.238922e-06
9.797124e-07
8.401722e-06
7.484647e-06
1.445049e-05
1.5045e-05
7.039244e-07
9.250082e-06
2.758188e-05
9.673965e-06
1.042718e-05
1.209766e-05
1.154969e-05
1.098496e-05
1.093882e-05
1.136289e-05
1.150404e-05
1.065061e-05
1.130567e-05
1.179373e-05
1.197632e-05
1.385579e-05
4.246294e-06
7.541656e-06
9.64639e-06
9.469279e-06
1.354108e-05
1.840491e-06
1.292724e-07
4.016611e-09
5.488095e-11
1.019156e-10
8.141234e-09
2.168821e-07
4.713227e-12
1.975946e-12
2.329367e-14
5.001338e-11
1.399668e-09
2.699129e-09
3.536327e-08
9.384736e-07
9.407743e-06
2.134008e-05
1.72225e-05
2.705464e-06
1.215046e-07
6.22934e-07
2.526938e-07
2.267693e-06
1.881854e-06
6.809283e-08
1.062201e-08
6.648183e-10
1.244045e-10
9.924816e-09
2.820425e-07
1.220746e-06
7.397473e-06
2.003925e-08
8.093068e-10
5.653453e-09
1.89379e-07
1.252543e-07
1.00129e-07
5.444893e-09
9.902869e-11
1.846743e-09
6.845773e-08
4.389655e-06
6.26121e-06
9.932527e-06
9.983361e-06
1.068611e-05
1.445004e-05
7.146809e-06
9.248565e-06
1.273835e-05
2.838041e-06
2.418274e-07
7.750304e-09
2.408915e-10
7.483663e-12
2.832876e-11
8.968587e-10
2.894784e-08
1.201865e-06
6.992145e-06
2.804611e-05
1.017707e-05
1.889206e-06
8.747152e-06
3.450448e-10
1.058184e-10
2.324965e-09
1.757205e-12
1.508048e-12
1.050986e-11
2.084973e-10
5.147702e-09
6.297062e-08
2.233755e-06
4.165837e-06
5.112916e-06
2.319203e-08
1.155673e-08
3.462236e-10
1.030561e-11
4.092991e-11
1.233617e-09
3.836413e-08
1.885527e-12
7.727342e-12
7.934866e-12
1.241842e-10
4.918377e-11
1.136803e-06
4.146378e-08
1.291394e-08
4.294951e-07
1.431597e-06
3.330235e-06
6.940382e-06
1.13682e-05
1.233129e-05
1.232107e-05
1.035722e-05
3.26213e-06
1.459453e-10
7.003666e-12
3.777421e-12
7.659077e-14
1.310198e-12
2.886317e-13
1.098872e-11
7.724058e-10
8.191487e-09
6.35012e-11
1.163259e-09
3.501827e-08
1.447293e-06
1.061282e-10
2.427622e-05
1.214223e-05
8.80685e-06
3.113387e-06
1.147715e-07
1.342765e-06
5.755826e-06
2.640731e-07
3.173379e-06
1.277883e-07
5.673879e-08
3.181416e-08
1.836842e-12
2.481046e-11
1.441517e-09
3.363823e-08
8.709943e-07
6.499579e-06
2.997778e-05
1.141098e-05
8.892335e-06
4.907969e-07
2.516921e-08
1.467138e-09
3.810823e-10
8.681514e-10
2.739423e-09
9.405995e-09
3.610062e-08
1.463145e-07
5.333542e-07
1.83277e-06
1.560248e-09
7.73581e-11
1.824266e-10
1.624302e-10
1.306331e-10
1.29178e-10
4.375561e-09
2.283113e-11
8.403859e-12
1.339123e-10
2.22979e-09
2.407423e-08
7.980374e-09
9.416299e-07
7.08725e-06
2.158156e-05
1.788228e-05
1.460826e-05
1.391066e-05
1.279668e-05
3.965322e-06
1.209751e-05
9.883751e-06
1.138006e-05
3.780635e-06
1.754318e-07
5.443246e-09
2.295575e-08
7.329271e-07
2.617648e-06
1.460472e-07
6.605939e-09
1.78153e-09
2.396303e-08
1.319896e-07
7.768726e-07
5.313521e-06
1.203013e-05
1.37086e-05
1.759265e-05
1.541053e-05
1.420608e-05
1.458842e-05
1.268069e-05
1.399733e-05
1.222584e-06
5.0677e-07
5.802925e-06
2.17731e-05
1.546465e-05
1.535894e-05
1.344197e-05
1.38704e-05
1.384063e-05
1.402542e-05
1.415626e-05
1.250384e-05
1.359102e-05
1.347846e-05
1.339431e-05
1.260537e-05
1.034691e-05
7.977934e-10
6.407957e-11
2.078222e-12
1.18163e-13
1.951331e-13
1.794897e-13
4.497801e-13
5.826594e-12
9.307208e-11
2.55383e-09
1.104453e-07
2.552019e-06
8.150699e-06
1.247042e-05
1.145047e-06
4.046878e-06
3.39031e-10
1.052834e-11
3.370514e-13
1.306801e-14
2.710064e-13
5.809056e-13
1.682933e-11
5.49401e-10
1.764542e-08
7.135857e-08
1.027343e-07
1.289977e-06
3.673968e-06
6.464547e-06
1.098378e-05
1.178796e-05
4.952629e-06
1.297491e-05
9.920536e-06
4.37614e-07
1.343617e-08
4.132882e-10
6.089867e-12
1.146217e-10
3.707518e-09
9.441543e-09
6.386635e-13
5.607724e-13
5.801756e-12
8.992508e-11
1.393442e-09
1.451977e-08
3.235272e-07
1.067288e-06
6.572128e-06
5.75935e-06
1.113968e-05
9.803294e-06
5.205309e-07
1.477571e-10
1.467856e-11
1.518978e-11
1.860007e-11
6.132581e-11
7.006769e-10
8.410162e-11
1.378333e-08
4.249555e-07
1.717107e-10
1.364629e-10
1.317373e-11
1.704489e-11
1.54229e-11
1.374641e-11
1.485207e-11
1.945567e-11
1.557712e-12
1.500066e-12
1.484875e-12
1.165083e-12
1.447957e-09
1.034034e-07
1.610385e-06
7.420246e-06
3.116322e-06
6.975075e-08
1.847437e-07
5.950439e-06
9.059345e-06
1.423984e-05
1.326475e-05
1.522855e-05
3.834961e-08
1.174146e-09
3.758989e-11
1.276702e-12
2.076694e-13
4.232902e-13
1.243249e-09
3.970085e-08
2.111106e-06
1.599022e-06
6.128585e-08
1.381243e-08
8.106158e-11
2.501272e-12
7.692298e-14
2.365815e-15
2.709103e-14
7.691851e-13
1.204687e-10
1.895134e-09
9.801366e-09
9.876748e-08
1.506141e-06
7.714579e-06
2.340073e-05
1.473839e-05
1.404793e-05
1.744134e-05
1.59654e-05
1.473267e-05
1.405417e-10
1.431368e-10
1.288101e-10
1.603636e-10
1.425914e-05
1.348673e-05
1.483957e-06
1.927183e-07
2.453664e-09
7.287528e-11
3.111629e-12
1.157112e-12
7.89253e-11
5.077074e-09
3.673798e-08
1.958748e-07
2.704155e-07
1.098394e-07
4.988582e-09
8.76041e-09
3.044588e-07
1.737328e-06