/*--------------------------------*- C++ -*----------------------------------*\
| =========                 |                                                 |
| \\      /  F ield         | OpenFOAM: The Open Source CFD Toolbox           |
|  \\    /   O peration     | Version:  2206                                  |
|   \\  /    A nd           | Website:  www.openfoam.com                      |
|    \\/     M anipulation  |                                                 |
\*---------------------------------------------------------------------------*/
FoamFile
{
    version     2.0;
    format      ascii;
    arch        "LSB;label=32;scalar=64";
    class       volScalarField;
    location    "10000/fluid_0";
    object      omega;
}
// * * * * * * * * * * * * * * * * * * * * * * * * * * * * * * * * * * * * * //

dimensions      [0 0 -1 0 0 0 0];

internalField   nonuniform List<scalar> 
43250
(
3.557695e+18
1.054467e+16
4.114227e+25
4.796626e+14
3.214413e+14
7.347695e+13
2.306359e+12
7.119637e+10
2.196985e+09
6.816117e+07
2085706
5536597
2.923449e+07
1633451
4.365346e+07
1.410438e+09
5.242684e+08
1.787452e+07
2.106773e+07
4.146009e+08
1.390976e+09
8.073165e+07
4139744
659376.8
512171.6
272896.6
206213.5
190679.5
192672.3
209690.3
208322.9
211816.9
212032.8
211334.4
211383.6
3.460787e+10
1.058961e+10
207896.6
20449.11
203719.8
242864.1
333313.5
2561786
7.594528e+07
3.433723e+07
2.51783e+07
606956.4
782055.7
1.87331e+08
3.311308e+09
1.685206e+09
3.923592e+08
6086478
606842
2473253
6040296
4.608653e+09
3.888442e+11
1.661777e+10
3.533586e+08
1.109812e+07
4.461762e+10
3.380107e+14
2.196101e+16
1.005298e+15
6.670364e+13
2.565609e+12
5.034131e+10
1.011494e+09
2.091227e+07
988712.4
408236.6
388160.6
224417.7
194177.8
814517.6
2.330924e+07
1.111523e+08
5829983
533567.8
355104.9
9793255
6.011615e+07
3009376
32935.35
78863.87
8.575218e+08
2.247439e+07
1.688985e+07
4.485594e+10
1.063746e+11
5.650695e+09
2.964802e+08
1.035613e+07
6.072001e+09
1.409899e+09
3.844083e+08
9.256582e+07
1.959784e+07
4893985
218402.5
77366.66
184894
242017.7
2915790
9980659
3.350643e+09
1.01039e+11
2.9161e+11
4.166146e+09
8.323299e+07
1.774201e+07
1830117
257619.2
212967.5
237406.1
226251.5
211198.7
238824.6
236543.2
357201
357417.8
219889.9
204815.5
215676.7
215446.1
161127.5
1395789
4289239
1187750
811844
289693.7
197224.4
210325.1
5538668
9.888495e+13
1.826506e+15
2.10118e+16
6.009715e+12
1.469174e+14
2.159968e+13
1.725825e+12
1.306033e+11
1.188666e+10
1.743139e+08
1.370066e+07
659728
234928.1
2265004
6.815875e+07
6.128041e+08
1.460612e+08
1.555318e+07
881612.9
349953.8
238605.8
226927
330612.2
216980.6
340661.2
2.747799e+07
1211229
384315.7
138337.2
170253.8
214804.6
216896.2
241347.9
1.765144e+11
3.17826e+12
3.152603e+13
1.778495e+14
2.227303e+12
2.294424e+10
2.832526e+08
4.378387e+07
2.48186e+08
1.813687e+08
4.666454e+09
2.959465e+09
8.330299e+08
1.078107e+07
1850020
493528.5
380505.1
266692.4
1.458417e+07
4.331643e+08
1.506755e+09
1.276539e+10
7.477156e+10
8.718046e+10
7.41965e+10
5.431807e+10
3.63944e+10
1.003296e+10
1.340199e+10
2.529865e+09
3.606157e+08
3.119997e+07
1530111
394844
158198.5
212082.9
244492.8
191556.4
4360239
253621.7
263026.8
195999.5
191313.1
346553
546095.5
1.016171e+07
3.227389e+08
1.524587e+09
1.523913e+09
7.179574e+08
9.405862e+07
1.165616e+07
1417760
337024.4
207027.5
185828.3
249671.7
199565.1
214171.7
250606.8
236969.6
250695.8
248450.3
229232.9
219657.2
215512
213505.7
212436.1
202281.1
4.827676e+07
1.355203e+09
1.657998e+10
5.275122e+11
2.137802e+12
2.767415e+10
4.123993e+08
1.247161e+08
4.745872e+07
8.045322e+07
2.750224e+08
6667524
2561303
1769464
5.341014e+07
1.57203e+07
7.710065e+07
3.95355e+08
2.08591e+09
1.103833e+10
1.817509e+10
2.390391e+07
1.771352e+08
2674865
164984.5
193970
209226
194102.2
209535.1
206442.5
210961.6
211118.3
211909.4
210834
209328.9
237478.5
358945.6
219269.7
287191.5
193938.5
216013.3
186327.5
1453588
4.504641e+07
6.388439e+09
2.253467e+08
2.710557e+07
1.249789e+08
6.998199e+08
1.679373e+10
4.480154e+14
1.675892e+14
5.677476e+12
1.760951e+11
3.349388e+07
2062439
630250.9
6723943
1197831
276916.2
129135.2
1.532653e+13
2.201404e+14
3.096652e+13
1.368191e+12
2.2268e+10
3.184436e+07
601116.9
283696.1
189304.8
205258.4
557233.6
261272.4
179116.6
6.351568e+09
1.410256e+11
3.998378e+12
8.414089e+12
4.55242e+10
1.429666e+09
4.565228e+07
8348688
2.397381e+07
1639459
99471.67
323424.9
234325.2
254174.9
207442.4
195729
543798
4.940847e+08
3.587622e+09
4.801455e+09
3.595907e+09
4.66968e+14
1.931719e+14
8.001279e+12
1.775356e+11
6.130666e+08
1.117239e+07
1193970
4.211375e+07
1.35205e+09
4.368552e+10
1.41149e+12
1.226839e+12
3.318911e+10
3.523884e+09
8.63965e+07
1724303
399486
108505.7
272669.7
203166.4
5712719
4.256778e+08
1.374127e+10
2.367774e+09
3.034493e+07
2940982
35253.84
162606.2
348162.3
1.319511e+07
2.325509e+08
7.084829e+09
1.485465e+10
1.88523e+08
1.442318e+10
4.594679e+11
2.964103e+10
3.22672e+15
1.249588e+15
4.894214e+13
1.001574e+12
4.958275e+09
1.546482e+08
5179410
2.194845e+18
154704.7
185213.5
1.242255e+09
9.180542e+09
1.16434e+09
1.25876e+10
3.347987e+11
6.102095e+10
8.108567e+09
1.011984e+09
2.029862e+08
1.419744e+07
1503430
214996.7
1269539
4.084066e+07
3297653
347127.2
129692.6
221401.8
237241.5
776863
2.625319e+08
8.480802e+09
7.707299e+10
3.461218e+11
5.244094e+10
6.363256e+09
7.428878e+08
8.720365e+07
1.05357e+07
1372139
289300.5
211587.4
247385.4
242101.8
246472.2
167664.8
319802.8
219414.9
219142.3
182524.1
347625.4
213963.3
229715
195603.5
711347.5
267338.5
515768.7
348023.2
208756.5
207074.7
153601.4
933213.1
2.964312e+07
9.52262e+08
3.075684e+10
9.935054e+11
7.583755e+07
2691539
347750.3
160110.3
3718380
806476.7
204240.5
233781.8
210095.6
222184
252191
186709.7
180977.6
162295.7
200338
156488
3.275877e+14
2.093334e+13
1.245126e+12
2.755244e+09
2980263
3497587
2.097328e+09
3.609392e+10
2.332669e+09
1.649696e+08
351599.6
281110.6
7004109
744712.7
1.434503e+07
3.227208e+08
1.682652e+10
5.847249e+09
1.393883e+15
2.797442e+09
8.697901e+07
370592
894788.5
235811.7
8.422812e+10
1.388146e+12
1.61468e+13
5.125193e+12
1.842397e+11
6.614629e+09
1.863094e+09
1.126735e+08
6018637
457354.5
214027.1
210071.7
209630.7
211175.3
213828.8
212439.2
221926.7
211982.4
227729.8
195165.1
3246003
1.035903e+08
3.344487e+09
1.080194e+11
1.006647e+11
1.393292e+09
4.119681e+07
446847.6
363231.3
212282.2
203442.2
208611.6
208662.7
211664.1
215899.4
258000.6
169376.3
202046.7
173469.5
217970.5
187408.6
3.987681e+07
6.495787e+07
3.152811e+11
1.017613e+13
3.286461e+14
1.061172e+16
7.54947e+09
2.342056e+08
342891.2
345203.8
72659.7
171502.5
207634.5
220429.3
246634.3
214747.6
230839.7
212317.6
203192.4
272839.6
1.854332e+07
5.989305e+08
9.875197e+07
2416371
300446.9
214745.7
215498.5
7.186876e+15
8.879902e+13
1.125104e+12
3.592957e+12
1.008689e+09
7939507
1.049475e+08
5.442704e+07
4.324514e+11
4.408512e+13
1.880391e+12
8.613577e+10
2.94711e+09
1.007529e+08
2841655
8.101559e+11
1.819981e+13
1.376994e+12
1.602215e+10
2.653242e+07
6729664
3.324766e+08
5.166572e+07
9990829
1876598
924215.2
2942991
1.447152e+07
2.480813e+08
4.542545e+11
6.218614e+12
1.78036e+08
5937500
2573779
1.140504e+08
3.741567e+10
1.208057e+12
3.900888e+13
4.402776e+15
1.758905e+14
7.777245e+12
3.790999e+11
1.851154e+10
8.558266e+08
3.668907e+07
820677.9
1.480546e+08
2.488222e+15
5.169799e+16
7.772925e+15
1.170799e+15
1.551711e+14
1.610709e+13
1.291254e+12
12008.98
123194.5
199505.6
209437.2
213517.2
214595.6
207568.6
222507.9
219296.9
248605.8
209230.1
202146.7
214147.1
209413.1
212036.5
209955.7
211223.8
220490.3
234168
226299.4
4748208
3.614201e+07
7191182
1470524
7558150
4.034743e+07
2.826591e+08
4.255971e+09
3.624769e+08
2.153827e+07
1239226
75975.16
353008.7
171361.4
201776
215349.6
211369
214733.4
210965.6
211602.5
211439.8
211145
213139.1
182442.8
238196.5
194990.1
201006.3
228189.3
231659.8
228770.2
223335.9
217337.8
214062
212768.8
206154.9
3628222
7.45166e+07
7.403539e+08
3.745866e+08
1.359647e+08
3.649365e+07
6.784818e+07
2.143111e+09
1.717458e+09
1.264983e+09
8.891858e+08
6.084099e+08
2.490235e+09
2.538802e+08
1.099828e+09
5.447095e+08
3.50223e+08
2.216956e+08
1.978729e+08
8.472039e+07
5.155095e+07
3.257765e+07
2532956
342739.7
221934.1
212689.4
2881708
396627.3
228932.8
220336.7
221093.7
222495.2
224014.1
225627.9
227419.2
229339.5
231340
233484.5
235761.6
238157.3
240756.2
243279.8
246264.6
248650.1
252595
254121.7
86504.79
2.499968e+11
1.759463e+10
8.729461e+11
8.984537e+11
5.763879e+11
1.174132e+11
2.241514e+09
6928834
1708903
6517022
1.300962e+08
4.973314e+07
2799064
6.327424e+09
5.071726e+08
2.127667e+09
8.526845e+09
3.511116e+10
1.429587e+11
5.713457e+11
1.107162e+10
1.072356e+09
6.295901e+09
2.29305e+10
3.222389e+09
3.689624e+08
2.125274e+07
51629.31
53939.15
40325.45
53638.72
59882.17
50573.1
62509.62
49139.13
44907.32
43716.87
40614.73
39869.02
39334.21
39213.43
38422.73
37970.46
38271.92
38768.99
38965.93
39111.25
39333.88
39726.18
40209.48
40750.87
41244.17
41260.51
153917.4
1587896
2.27212e+07
3.175366e+08
5.655021e+08
5.754553e+08
4.164577e+08
3.261917e+08
1.660734e+07
2.019777e+07
3467125
2.343005e+08
7.486058e+09
2.394712e+11
7.661517e+12
3.317919e+12
1.450072e+11
9.99919e+09
2.626513e+07
4375123
7.785849e+07
1.90381e+07
1.197955e+10
1.553812e+11
4.36002e+11
9.39269e+10
3.757638e+10
1.211281e+10
2.455292e+09
1.578272e+08
2194536
417060.1
145582.6
800200.3
212298.8
2907617
9.248346e+07
5.88947e+08
1.031289e+08
3925942
470627.8
127297.9
177652.6
211184.2
227073.6
228549.8
215349.2
214898.3
220793.8
214941.2
214548.8
209341.1
4.769419e+12
6.355771e+13
5.802607e+13
1.507539e+13
2.718953e+12
3.52622e+11
203529.9
223835.5
208389.9
174642.4
533785.6
1911327
286266.1
197402.4
172595.3
216238.9
240910.3
216729.8
2.353971e+08
1.376775e+11
4.409668e+12
1.023302e+13
2.689189e+14
2.818805e+13
3.400161e+12
2.222251e+11
2.513274e+10
3.752591e+08
1.148666e+07
739430
1018775
9365343
1157995
4.635441e+08
1.484976e+10
4.757715e+11
9.165263e+12
2.795986e+13
4.000472e+11
5.530397e+09
2.105151e+08
3.999917e+07
5831587
1212202
373260.4
151034.4
216278.8
211477.1
230151.4
308940.9
2675323
1.967966e+07
1529423
321708.9
4.976523e+08
1.594746e+10
5.111159e+11
3.271333e+13
2.480524e+11
1.683663e+10
8.590787e+08
3.338487e+07
1.998514e+08
3.460663e+09
1.915386e+08
8342568
197843.1
369766.3
299605
189560.1
1754300
4.010357e+07
1.21983e+09
1.369401e+08
2.088052e+08
2.936651e+07
2221024
416774.1
120071.8
229514.9
225420.6
186744
204730.1
224862.2
2.163387e+11
4.01262e+13
1.191653e+14
1.44341e+12
1.550723e+10
8.32313e+08
9.555465e+08
8.614973e+09
1.710516e+09
2.092586e+08
1.212507e+08
4816804
37296.76
97413.99
238076.5
198437
236261.1
329895.7
547069.7
3492364
2.577432e+11
8.26353e+12
2.789728e+11
3.062331e+14
1.201678e+09
3.782499e+07
343731.6
350330.2
212397
212841
6.780793e+14
6.164599e+13
7.569704e+11
1239132
3.446046e+07
1.579186e+08
2.305507e+09
2.624586e+09
2.970509e+08
4.064886e+07
4685103
511574.2
134620.2
313367.1
191390.1
207440.6
229958.2
196468.2
210596.5
211248
212108.5
210697.1
212599.6
212387.7
212503.7
212572.6
211286.4
214896.6
269820.6
214452.1
2.314913e+07
1079996
394226.8
544479.6
221854.8
3.567816e+11
7.03677e+12
1.90073e+13
1.265353e+12
6.024997e+10
2.7595e+09
1.152236e+08
1551533
2.247295e+08
1.798898e+07
975489.9
349902.4
201448.1
221186.2
212128
198829.5
198702.4
166248.1
1875246
1272571
288940.6
158817.1
237598.5
198244.7
324745.7
208019.8
8.719755e+10
2.41313e+12
4.598888e+13
2.042734e+15
9.377849e+13
3.662749e+12
1.377773e+11
4.932348e+09
2.208407e+08
3.965432e+08
7.173262e+09
2.050625e+11
5.149205e+09
3.890634e+08
9455951
784647.1
40053.54
291185.8
188259.9
194679
3806551
3823160
2.723507e+07
6.225119e+07
1.724964e+07
854778.4
466635.3
273184.2
219559.1
224293.2
249417.7
209036.2
212523.5
211761.2
268412.3
1.843091e+07
1.216049e+10
3.901839e+11
1.875816e+12
8.809261e+13
1.052922e+13
1.257417e+12
6.369331e+10
3.046061e+09
5756238
523015.2
817.9979
359671.5
5349954
9610581
3125827
289209.2
156457.6
341156.5
761234
635134.2
1664946
2881111
6769822
1.574524e+07
3.625704e+07
6.882118e+07
3.211882e+07
1.995257e+09
9.912992e+07
5260588
507432.7
2.373902e+08
7.607759e+09
2.441588e+11
7.835568e+12
2.097853e+14
4.928066e+13
3.67861e+12
1.309517e+11
2.12593e+09
1.353653e+07
892692.8
4083794
1.605738e+08
7.966129e+08
2.38181e+10
9.853524e+08
3.091439e+07
257900.1
4023454
5.591043e+08
5.349864e+07
4595936
9550642
2.252872e+07
3.713072e+07
1.18332e+08
8.468552e+07
2.578172e+08
6163452
1502157
508389
250875.3
221950.3
706739.5
3627628
1.90734e+07
2.136316e+10
2.442152e+11
3.271024e+07
7.999058e+07
4.840313e+10
3.845983e+07
1.265628e+08
1.989181e+10
2.680882e+08
7.371029e+07
2.71368e+07
1.165962e+08
1.512065e+07
1920958
113981.2
3135237
1.405699e+09
4.511763e+10
3.087994e+11
3.536427e+12
6.597247e+11
9.237588e+10
1.088319e+10
6.283681e+09
5.904476e+08
1.628271e+07
2.522363e+07
1237593
110761.7
492611.5
193531.1
2298176
340934.5
151916.6
263344.6
193151.6
229091.6
205991.3
217965.8
214775
214833.4
208556.7
210983.1
211396.9
212876.7
212706.8
212338.6
210920.8
194224
239764.1
324285.7
4903301
3.672756e+07
4.365814e+08
1764896
406078.1
246946.3
523681.6
220124
167343.3
186501.5
209353.9
207112.8
212088.6
188256
173058
2.9699e+07
5.456278e+08
1.384348e+07
165917
7940613
2.232453e+08
1.662391e+09
1.873838e+10
2.29512e+08
2.472968e+07
1.066018e+07
2.259224e+07
3111276
228741.7
442379.4
209172.2
186452.8
208969.1
196972.7
244638.2
478771.5
1.4699e+07
4.718924e+08
1.515152e+10
1.125229e+08
3848229
422738.4
2545270
1.111522e+07
4674247
869333.6
253032.1
203382.4
200200
228898.5
219658.8
771514.6
280626
2.113851e+12
6.787137e+13
2.179127e+15
7.747434e+14
1.02e+13
1.265423e+11
1.556211e+09
1.11656e+07
695317.8
134289.6
906666.2
248891.6
155843.7
365941.6
237004.5
208329.7
341684.7
3768931
823690.7
1.286082e+14
3.411289e+15
3.202567e+17
1.308045e+16
6.497991e+14
1.72492e+13
2.334486e+11
4.124249e+09
1.266324e+08
4785078
1.780193e+10
2.132534e+11
2.526568e+09
3231110
3142455
670891.7
130619.4
201040.7
221422.6
216004.5
202542.1
224806.9
628100.5
1.399495e+07
1.289106e+07
2007528
253146.2
290129.5
1711167
4.083714e+08
1.769105e+10
1.830877e+10
2.678601e+08
7.565585e+07
2.554748e+07
3.447084e+07
1812854
403717.8
122882
186235.8
4.329586e+08
1.181533e+10
2.792538e+11
8.315058e+12
3.760565e+13
6.008958e+12
8.498241e+11
1.030423e+11
8.320347e+10
8.085124e+09
8.083982e+08
2.499033e+07
397980.1
377982.6
709866.6
1.750701e+07
2847846
1.920631e+08
4.508454e+12
1.447978e+14
9.874058e+15
4.162305e+14
1.537451e+13
3.319218e+11
3.714887e+09
1.169852e+08
3222519
8438281
2.657511e+09
4.733762e+08
4.923758e+10
2.294127e+13
3.855097e+11
2.759756e+10
9.303069e+08
1.4185e+08
3628189
459699.6
104112.4
263417.6
198982.9
213469.5
176977.5
203331.9
218336.4
211670.1
214900.3
123600.3
1.505608e+10
7.801101e+10
5.350779e+11
6.116481e+10
3.363059e+09
5.073013e+11
5.396816e+10
2.884068e+10
1.149799e+10
1.885749e+09
4.160607e+07
1639446
19078.71
2251395
5221053
3026944
2.200668e+09
7.068085e+10
2.270249e+12
7.292258e+13
2.342186e+15
7.522619e+16
1.988458e+10
6.19536e+08
5525961
1141298
374913.3
6.585509e+07
2.195834e+08
2.610632e+08
1.265137e+09
2.343332e+12
3.788904e+11
5.404424e+09
1.663125e+08
4357726
378931.8
2526929
3.332535e+07
395322.3
817441.7
6.636504e+07
5.228233e+08
2.166487e+08
1.127635e+09
4.840918e+13
1.909588e+13
7.371993e+11
9.289192e+09
5.220496e+07
3446981
452897.9
113454.4
234840.1
189796.5
252039.8
1237320
6.729565e+09
2.925141e+11
1.002803e+10
2.940572e+15
5.94871e+14
1.886976e+13
5.87608e+11
2.292165e+08
9.052559e+09
1.561471e+12
3.07767e+12
4.214526e+15
1.36647e+14
6.055499e+12
2.734381e+11
1.362246e+10
1.50749e+08
7915646
721036.3
208475.6
4577889
1.773316e+08
2.587692e+07
4141475
2327.47
149177.1
710778.9
1.458871e+07
1140963
383260.4
140251.6
206354.3
300928.2
223322.4
4.80739e+08
4.758803e+09
2.165808e+08
1550408
1053130
810386.1
1559699
826330.9
292561.1
302816.7
2.213877e+15
1.006578e+17
1.32969e+16
1.949229e+15
2.025338e+14
5.546632e+12
6.925522e+09
1991152
702828
244078.3
204123
234152.7
219840.9
215498.3
3.246668e+10
193301.5
208136.9
212334.8
222098.6
284617.6
219252.2
212355
2.145757e+14
1.338428e+13
6.568157e+11
3.095909e+10
2.78583e+09
9.010616e+07
1.857868e+07
1634023
302517.7
5.678765e+12
1.006569e+10
6.167934e+08
4228724
483733.7
278071.3
211562.4
213095.3
226984.2
215873.7
235989.3
214984
208731.7
208279.4
208448
220330.4
196786.2
187786.8
213534
241252
239501.1
388064.9
176513.3
272096
229936.4
338991.5
189959.5
205237
4.239694e+16
6.60936e+15
5.080697e+14
3.996442e+12
2287495
5.694329e+07
1.767018e+08
6793553
2336195
765955.1
243213.6
1.626534e+15
2.052433e+16
2.469915e+14
2.836186e+12
3.253535e+10
3.867132e+08
5169384
59656.76
9.632313e+09
9.336632e+08
191646.8
210560.1
213703.3
209712.7
220665.5
4736794
8.898812e+08
4.827723e+09
3.287143e+10
4.450349e+09
5.414899e+08
6.424316e+07
8061020
540645.5
244724.7
513331.2
6.489271e+07
4.633036e+08
6.38423e+07
2.341299e+07
8458288
559086.2
466625.8
3507620
2611862
1216413
479854.1
223334.9
164906.4
1752431
290068.1
226438.2
161774.9
214091
243744.7
258975.6
246402.8
179723.4
181534
269225.7
449686.2
285168.9
227423.2
277476
224445.5
222092
200512.1
826639.8
2.471057e+07
2.139018e+08
1.280687e+09
2.239769e+07
5182889
1122515
656663.8
209682.6
523379
1.42449e+07
4.55775e+08
3.725753e+10
1.679171e+09
8.412506e+07
4845243
578071.8
72704.19
285202.9
202953
216293
3.63722e+11
1.168705e+13
3.755022e+14
1.206562e+16
3.877214e+17
1.245847e+19
2.443522e+20
1.076112e+12
3.180078e+11
1.336025e+08
1.38394e+07
6461340
2406690
384511.6
175375.8
223034.4
210715.1
244881.2
212253.7
209686.7
216910.8
208980.6
220760.4
7.244511e+08
8.556067e+08
1.920402e+08
1.336431e+08
2.460824e+08
6.287376e+07
1.599661e+07
3780975
260588
234482.8
665144.9
419968.5
263598.4
225112.5
215354.5
213130.1
212644.7
212512.6
212664.6
243541
228941.1
215730.4
212702.4
213076.3
212423.7
213143.7
212349.5
213463.7
216291.2
214032.5
201880.4
247472.5
224118.1
224374.6
198215.6
171112.1
217018.1
177054
189783.4
212867.7
204204
415316.1
4265696
932339
287213.5
234260.9
6.388184e+15
1.876331e+17
8.948673e+15
3.844552e+14
1.675218e+13
7.802857e+11
3.641657e+10
1.751504e+09
8.364817e+07
3799549
111724.1
1458060
1336197
442023.5
241358.3
216179.8
212688.4
212206.7
212289.6
212354.6
212407.2
212452.9
212474.1
212493.5
212508.6
212498.8
212483.3
212476.5
212465.6
212455.6
212452.4
212455.8
212457.2
212453
212466.3
212436.1
212401.8
212425.8
212485.1
212609.7
212823.2
213123.3
213480.9
213928.2
214482.5
215107
215897.1
216800.9
217758.7
218819.4
219996.1
221288.7
222682.5
224181.7
225814
227564.6
229444.6
231462
233600.6
235880.6
238282.8
240804.6
243347.7
246157.4
248722.9
252570
253694.7
83551.43
6894089
9.427709e+08
1.195483e+09
2152015
5203851
1.62989e+08
5.576299e+09
1.048112e+11
9.83452e+11
7.427069e+12
5.80709e+11
3.791732e+10
2.334873e+09
2.036115e+08
6551254
562582.9
366706.4
201644
254569.9
255510
175371.8
206770.9
162842.9
164720.8
191812.9
218798.6
227977.7
165567.6
2345985
3.160742e+07
1.466608e+07
3.605109e+12
9.26691e+15
5.766195e+16
5.727108e+16
3.449153e+15
3.098248e+14
2.044292e+13
1.21874e+12
7.077396e+10
4.166337e+09
2.284161e+08
1.16094e+07
525437.2
688381.2
1609956
304624.6
237855
188906.1
207914.7
3.255724e+14
2.091588e+13
6.689339e+12
1.797368e+12
4.333733e+11
1.10143e+11
2.959858e+10
5.580672e+10
1.269994e+10
4.263045e+09
1.59918e+09
3.371263e+08
1.897223e+07
1310018
4.86466e+08
1.568954e+10
1.5286e+10
8.46489e+09
2.456505e+10
2.04438e+08
1975774
1008701
2.734041e+07
2.586097e+08
7561756
1061297
267740.8
153119.8
226013.2
217813.8
215822.2
201114.8
188224.5
935354.8
2567997
902512.6
395090.8
1.831038e+08
5.214157e+09
2.646474e+11
5.985584e+12
2.260595e+13
3.851746e+11
6.204028e+09
8.052318e+08
6.916995e+07
1.257525e+07
1.997244e+10
7.161061e+11
2.154245e+10
1.531909e+13
9.315283e+10
2.6053e+07
5.236408e+07
7.526908e+08
1.64013e+07
3425447
739971
173198.4
310412.4
347952.5
1.037914e+07
570445.9
415909.4
227621.1
330927.1
591804.1
1377847
3195577
4260049
1.328298e+16
1.229532e+17
1.900468e+15
2.778712e+13
4.152627e+11
5.671757e+12
1.06522e+10
6737436
1.50547e+08
8.494347e+09
1.893297e+11
6.030798e+12
1.090699e+12
2.471436e+11
5.589173e+09
1.183534e+08
7433795
660921.4
377897.8
469249.9
175290.8
207630
754528.8
1.267615e+07
3.293312e+08
1.019774e+09
3.14896e+07
1.203986e+08
4.584994e+09
3.55797e+09
2.467744e+08
9261881
382457.6
352493
1.450307e+08
3.340594e+09
9.635714e+10
3.104772e+12
1.127795e+12
3.207433e+10
1.270715e+09
4.95362e+07
358987.3
4.205765e+07
8116964
1094452
235685.8
510565.7
951152.1
2.767526e+08
4.036177e+09
8.886698e+08
1.286573e+08
1.234777e+07
670805.6
1485914
2138750
1.20932e+07
443310.3
181796.9
7033072
1943942
1.221253e+07
2.292319e+08
5.862715e+08
2.02611e+07
1.91151e+07
772442.2
1.745404e+07
6941217
1572796
276820.3
147541.8
247692.7
747688.3
546057.1
1592406
3.224262e+07
2.167621e+09
2.449011e+09
2.581222e+07
930115.3
2.519344e+08
4.950876e+09
3.93186e+07
7340558
335429
2508478
3217353
327666.8
395318
179184.2
178045.4
5156526
315644.7
67653.34
303531.9
252177
202757.6
207701.7
215306.2
217574.4
210632.4
211156.2
235689.2
221506.6
212386.6
208642.8
172469.2
684945.7
342824.6
255578.2
261537.6
163014.4
1599547
2.338364e+07
7.640814e+08
5.619542e+10
3.007853e+10
3.710506e+08
1.352193e+07
6.182189e+11
1.40826e+12
1.890132e+14
5.329217e+10
1.921697e+09
1.025125e+09
8.192006e+07
3211366
286469.1
108542.8
158644.8
1373840
3.168641e+07
6015312
1.43426e+07
1441475
1633380
4.371661e+07
2.627847e+08
4.023156e+09
2.126114e+10
2.713664e+08
9983372
2432654
372595.1
1.739084e+08
4.368623e+09
6.261067e+08
1.818476e+07
2.64204e+07
3.143438e+07
5.485832e+08
2.861414e+10
1.4682e+09
3.831779e+07
521684.1
365551.4
211355.9
220419.2
214105.2
155576.9
395261.4
300165.7
217861.1
1213498
1.495724e+07
4.714264e+08
1.521344e+10
4.912976e+11
1.305047e+11
4.117759e+09
1.26503e+08
2935492
435389
53525.03
273979.4
1649588
283578.4
1.090401e+10
4.286253e+11
1.233677e+09
3.703253e+12
6.180562e+12
3.117802e+11
1.468615e+10
6.203459e+08
5.337421e+07
1509564
804538.8
649417.8
1.575004e+08
3.057566e+08
9.865056e+09
3.185629e+11
7.722328e+10
2.496415e+09
7.952378e+07
1.752178e+14
5.256546e+17
4.336248e+16
1.80068e+15
2.24146e+11
3072786
8.815912e+07
2.862012e+08
8518084
2471649
1000320
441608.3
229953.3
202497.9
208928.8
255596.4
965544.5
2.688478e+10
8.682252e+11
2.803884e+13
9.055195e+14
3.902248e+14
2.176584e+13
3.260797e+11
4.608784e+09
4.35619e+08
5.63782e+10
3.073921e+09
1.01971e+08
2392491
1.952144e+18
74450.26
228731.5
331336
1063024
3.033568e+07
2507894
530616.5
1.310567e+07
1015799
2.718181e+07
6.161235e+07
1.112737e+08
1.944797e+12
1.446605e+11
2.491861e+09
1.062525e+08
4002068
468113.2
46263.8
245360.7
319244.4
6985395
1.352458e+08
2.316526e+09
8.905806e+09
3.904684e+09
1.243134e+09
3.662185e+08
9.627477e+07
2.38931e+07
6554988
1869861
2.323862e+09
7.682739e+16
4.836299e+18
2.74754e+17
1.097425e+16
3.88297e+14
8.561269e+08
1.75377e+11
4.56335e+11
2.824549e+10
1.69432e+09
1.574584e+08
4.783264e+08
3995222
470095
118470.1
159910.7
205650.8
212465.7
230861.8
882271.2
239237
313986.3
256804.9
900547.5
2.043075e+07
6.529204e+08
1.537385e+08
4741400
1288867
2.442893e+07
5.414037e+08
2.01928e+09
1.502008e+08
2.728142e+07
4584400
614856.3
239247
209621.1
156339.6
187984.9
207238.4
200563.9
241256.4
211198.3
3153549
7593827
601254.5
120470.9
206057.1
197173.7
223288.1
211831.9
212103.4
209380.1
210005.5
239409.5
211437.3
213809.8
215194.5
229316.4
289785.2
5.605175e+09
6.169173e+10
2.944571e+12
7.289784e+13
5.154867e+15
2.696283e+14
1.111846e+13
6.338401e+11
3.902385e+10
1.426131e+09
3.302175e+07
1364880
385085.8
230505.2
3231701
858194.3
1.130029e+10
3.650351e+11
1.179146e+13
3.809032e+14
2.411918e+14
7.520911e+12
2.327838e+11
7.203178e+09
2.249875e+08
5.565079e+07
3.855879e+07
2988067
996042.1
531385.9
284876.2
277374.8
714825.2
227983.5
317993.4
8602407
2.762023e+08
8.921203e+09
6.035734e+11
3.213878e+10
9.942537e+08
3.901839e+08
5.763134e+12
6.560131e+12
6.336411e+11
4.109504e+10
2.680319e+09
2.594338e+08
1.166104e+07
3507285
513903.1
604145.4
279486.9
336130.9
7624947
2.776399e+13
6.55727e+13
2.260993e+13
1.441508e+12
8.736345e+10
9.600163e+09
5.566077e+10
2.943213e+08
9449789
1.561498e+11
5.044945e+12
1.462615e+14
5.054454e+15
8.54116e+14
4.547603e+13
2.381628e+12
7.047451e+11
1.672897e+13
4.210476e+14
9.652589e+13
3.690147e+12
2.651977e+09
3.714352e+07
2319108
450889.5
1175807
5.51916e+07
2.067543e+07
576642.1
367496.2
224996.6
238478.3
199644.8
1.057148e+08
3.404211e+09
1.099843e+11
3.553622e+12
8.063582e+13
1.498818e+13
3.218679e+09
9.998343e+07
1796587
2381012
6.358643e+07
2.819035e+08
4.794325e+10
1.546114e+12
4.995583e+13
1.613986e+15
1.478619e+14
4.928631e+12
3.140259e+10
1.995519e+09
3.850824e+08
3.80353e+07
2419353
420710.4
102943.6
204350.1
207075.4
158370.4
182529.8
195314.8
9.183893e+14
5.838555e+13
3.380838e+12
1.909956e+11
208882.9
230739.6
2658075
2.046689e+07
1.604214e+09
5.390395e+10
1.321391e+12
3.42459e+12
4.936528e+10
7.629064e+08
1.045631e+08
1.948961e+07
1.41368e+07
3.48881e+07
7.678844e+08
4.35637e+08
1.240695e+07
2102652
453757.1
1.903647e+12
6.130525e+13
1.980093e+15
4.724849e+14
6.907175e+12
6.187744e+10
1.914709e+09
2720564
5.977007e+07
6.397213e+08
1.359898e+07
4812931
957784.4
743847
227712.2
2.088181e+16
5.014944e+15
7.252422e+13
8.145404e+11
4.34228e+08
4.367228e+07
2526052
8.275818e+13
1.635201e+10
5.283711e+11
2.665334e+13
9.275308e+13
1.323884e+12
1.87411e+10
4.369547e+07
6.012155e+08
5.301299e+08
2.616771e+08
1.201736e+08
1.185932e+10
3.707636e+11
1.110013e+13
3.535679e+14
4.77306e+13
5.034827e+11
4.585919e+08
1.452747e+07
342662.9
5.590511e+18
207540.2
210231.8
211794.9
211032.6
213544.9
210882.1
212327.1
212054.4
211724.6
212222.5
214268.8
194734.5
213492.7
409411
1.099088e+07
1.511783e+07
2836223
302351.5
122547.1
300358.4
207950
222930.9
683962.1
7.984264e+07
3.892308e+09
4787600
497133.5
209675.1
4604543
963410.1
137882
255685.4
5454105
1.762256e+08
5.671833e+09
1.833368e+11
1.543258e+13
2.326436e+11
3.643845e+09
5.182673e+07
1965802
652337.4
5177513
2.788746e+07
1.163303e+08
5.242865e+11
2.06769e+11
8.719948e+09
7.597898e+08
3.819132e+07
4079438
7.83859e+07
2.527346e+09
8.170571e+10
8.319798e+11
1.129356e+10
1.905825e+08
1.391334e+10
6.998305e+10
2.234117e+09
1.831672e+13
2.199896e+13
3.603742e+18
4.267653e+16
3.689892e+15
3.215069e+14
5.307556e+12
6.366401e+10
2.324834e+08
7566228
1077750
1.330724e+07
1424274
378645
5.955361e+11
1.925437e+13
2.722945e+14
3.832306e+15
6.15272e+13
9.172085e+11
7.479679e+09
2.315923e+08
342663.4
348533.6
192991.5
210580.1
211263.7
1069625
2.968454e+07
1.58219e+08
2.329736e+10
6.933858e+10
4.066571e+09
2.643189e+08
7.631432e+12
2.467851e+14
3.003126e+14
5.288206e+14
8.748735e+13
1.108562e+13
2.876371e+11
4.496421e+09
6.225418e+07
2.080592e+07
5.554912e+08
1.021338e+11
2.372017e+12
1.351435e+12
3.488957e+11
2.710238e+10
1.586758e+09
1.237923e+08
3492410
5.801553e+10
3.852868e+08
1630574
4.200279e+07
1.081361e+09
1.743255e+08
1756012
410199.9
434040.4
2647507
7.274729e+07
1.188728e+08
3280927
2981826
1.441817e+07
865329.5
1.677811e+07
9.666142e+07
3.628421e+07
2696917
647.8125
103190
275629
214839.2
215547.9
1903332
5.918261e+07
5.331142e+09
3.124358e+08
2.726955e+07
1578295
1034739
2.081575e+07
8.902301e+12
2.879918e+14
7.412798e+15
1.68326e+15
2.90596e+14
4.42966e+13
6.644188e+12
8.401684e+11
1.072132e+10
3.637662e+08
342401.1
345729.6
105431.3
194648.1
196779.3
408818.2
1.109314e+07
7.736886e+07
1.498642e+07
4.013166e+09
5.06178e+14
5.540852e+15
2.516918e+15
9.970981e+13
6.173716e+12
1.910422e+11
1.768293e+08
1.971944e+09
5.130427e+07
522299.7
365362.5
219630.4
205639.4
543941.5
2706639
3.041476e+08
2.015682e+08
3019652
403162.4
1.58691e+07
1.230499e+08
1.008651e+12
8.384651e+13
4.326946e+12
2.634702e+11
1.692128e+10
1.41287e+09
9446372
677719.2
2.839065e+18
322654.6
228269.9
197696.7
225722.3
216539.3
211351.7
307297.6
191477.2
219208.8
223260.1
286478
217776.4
209232.9
203242
299290.1
1.030034e+07
5.979338e+08
4.233664e+07
2663822
506753.7
2657349
6.917306e+07
5.735845e+10
3.613987e+08
6.238029e+12
2.709423e+12
1.148151e+11
1.207914e+10
4.367613e+08
1.586127e+07
672003.8
1.066898e+07
3.910024e+07
8628972
3694225
3740740
763163.1
213712.5
518536.6
231524.9
5737565
1.531863e+08
5463197
511886.7
25807.72
155413.9
208840.2
218899.5
1.324482e+10
3.047959e+10
2.48333e+11
1.980893e+12
3.775784e+12
3.107514e+11
2.151811e+10
6.793079e+10
2.213618e+09
1.895353e+07
1536460
179839.4
4246333
1.382804e+08
1039569
378719.7
138617.4
1.672911e+09
1.279458e+10
1.670937e+12
4.888706e+13
7.50348e+15
2.590968e+14
1.032788e+13
4.778493e+11
2.522657e+10
1.542622e+09
9.880446e+07
2787617
504396.4
103057.5
233507.5
182394.9
211767.4
209865.2
242052.4
340922
326373
7.089751e+07
2.292725e+09
7.429284e+10
2.40748e+12
7.80109e+13
1.927845e+12
2.01699e+07
3.5461e+08
8.517959e+09
5.674938e+11
3.478304e+10
2.972014e+09
1.067029e+08
675064.2
351052.4
284438.9
7.269257e+13
1.482615e+15
5.786407e+14
2.306825e+14
1.54371e+12
747933.5
316425
1.951831e+13
6.166678e+17
1.999316e+19
2.615799e+20
1.405346e+12
6.209804e+10
6.085509e+11
1.04481e+13
5.080443e+11
1.022584e+11
3.138325e+09
2.572287e+08
8353394
849603.9
1711571
6587739
8.756739e+09
7.302256e+11
3.599229e+10
1.108888e+09
2.241659e+07
9.32592e+11
6.996619e+12
7.302855e+12
4.978763e+11
3.44677e+10
1.766539e+09
5.401263e+07
2414704
606551.5
1.644518e+07
5.286211e+08
3.36672e+09
6.302425e+07
8353188
1720087
9.859084e+18
3.20032e+20
5.951673e+18
2.05959e+11
2.294777e+08
1885126
401086.7
26343.81
179932.5
763642.5
2.7997e+07
8314726
2.536806e+10
2.543797e+09
4.364758e+07
951099.2
379079.9
2420310
1.165244e+09
6.924069e+10
4.9141e+09
3.150586e+08
2.186287e+07
1001025
490298.7
548550.8
235759.4
233070
217464
217802.7
1.03401e+15
342398.3
341390.9
1.024498e+07
9.397636e+08
1.05644e+09
2404679
3716090
1.067338e+08
3.121304e+09
9.084905e+10
1.019192e+12
6.266625e+12
4.259509e+11
2.572515e+10
1.559381e+09
1.381349e+08
1319850
8123.548
1190.779
25410.82
73166.45
72083.81
100016.9
129152.3
71719.14
40522.66
51925.65
68608.1
58887.76