/*--------------------------------*- C++ -*----------------------------------*\
| =========                 |                                                 |
| \\      /  F ield         | OpenFOAM: The Open Source CFD Toolbox           |
|  \\    /   O peration     | Version:  2206                                  |
|   \\  /    A nd           | Website:  www.openfoam.com                      |
|    \\/     M anipulation  |                                                 |
\*---------------------------------------------------------------------------*/
FoamFile
{
    version     2.0;
    format      ascii;
    arch        "LSB;label=32;scalar=64";
    class       volVectorField;
    object      U;
}
// * * * * * * * * * * * * * * * * * * * * * * * * * * * * * * * * * * * * * //

dimensions      [0 1 -1 0 0 0 0];

internalField   nonuniform List<vector> 
43250
(
(0.1187611 -0.07566909 -2.510542e-28)
(0.1160319 -0.08020604 4.090844e-28)
(0.1134764 -0.08457454 -4.757879e-28)
(0.1098317 -0.0881636 -7.219617e-29)
(0.1057579 -0.09140294 4.340446e-28)
(0.1027347 -0.09563371 -3.707652e-28)
(0.09981502 -0.09968142 1.921239e-33)
(0.09575976 -0.1026975 -9.683111e-28)
(0.09125673 -0.1052783 4.330226e-28)
(0.08763403 -0.1089991 -7.93004e-28)
(0.08404221 -0.1124316 -4.112992e-29)
(0.07930278 -0.1144404 3.40467e-29)
(0.07416992 -0.1158283 -2.229689e-28)
(0.06989127 -0.1185338 -1.980148e-28)
(0.0658681 -0.1210665 0)
(0.06107964 -0.1222115 0)
(0.05615492 -0.1230162 0)
(0.05192025 -0.125402 3.50958e-28)
(0.04792506 -0.1277197 -1.883089e-28)
(0.04331026 -0.1285632 -1.497581e-29)
(0.03854515 -0.1290342 1.354206e-29)
(0.03415924 -0.1310335 -1.55215e-28)
(0.02995556 -0.132924 7.142748e-29)
(0.02528859 -0.1331745 0)
(0.02050636 -0.1330205 -1.050199e-28)
(0.01581352 -0.1339748 5.026383e-29)
(0.01135394 -0.1351149 -4.104213e-29)
(0.006652799 -0.1336301 6.066026e-29)
(0.001979889 -0.1328621 8.300934e-30)
(-0.002541263 -0.1320752 1.055741e-29)
(-0.007177407 -0.1323941 -5.121918e-30)
(-0.01176473 -0.1342077 -1.423993e-29)
(-0.01628323 -0.1348743 -9.360117e-30)
(-0.02086603 -0.1352108 6.858747e-29)
(-0.02545166 -0.1354428 2.045835e-29)
(-0.02989191 -0.1347844 8.459077e-29)
(-0.0343485 -0.1339859 -1.92683e-29)
(-0.03862472 -0.1325081 0)
(-0.04314804 -0.1314683 -1.587794e-28)
(-0.04773573 -0.1309877 -1.720257e-28)
(-0.05171083 -0.128722 2.030241e-28)
(-0.05586174 -0.1267047 -2.424346e-28)
(-0.05962847 -0.1239821 1.49511e-28)
(-0.06374303 -0.12182 -3.307152e-29)
(-0.06769618 -0.1198587 -3.574091e-29)
(-0.07100862 -0.1167777 -2.994591e-29)
(-0.07415186 -0.1134791 0)
(-0.07796835 -0.1111644 0)
(-0.08191433 -0.1094171 3.425779e-28)
(-0.0845627 -0.1058948 0)
(-0.08779998 -0.103015 -3.360787e-28)
(-0.09065518 -0.09983798 2.907679e-29)
(-0.09431737 -0.09735785 3.057191e-28)
(-0.09797309 -0.09513704 3.836828e-29)
(-0.1005595 -0.09175244 -3.648701e-28)
(-0.1029427 -0.08810756 0)
(-0.1062477 -0.08513296 2.834095e-28)
(-0.1096412 -0.08246612 -4.052082e-29)
(-0.1110034 -0.07818967 -2.943629e-29)
(-0.1128767 -0.07419456 0)
(-0.1141716 -0.07001088 -2.657548e-29)
(-0.1161052 -0.06615293 -2.742391e-29)
(-0.1184625 -0.06284141 -3.999803e-28)
(-0.1187582 -0.05844675 -2.090383e-28)
(-0.1199101 -0.05442659 1.190659e-29)
(-0.1211056 -0.05054937 -1.715089e-28)
(-0.1233893 -0.04699073 1.002949e-28)
(-0.1269345 -0.04402269 -8.575541e-29)
(-0.1293291 -0.04058922 -8.463461e-29)
(-0.1316628 -0.03700164 1.336961e-28)
(-0.1337775 -0.03332056 0)
(-0.1353899 -0.02946445 0)
(-0.1362786 -0.02540561 9.940007e-30)
(-0.1371204 -0.02130128 9.896635e-30)
(-0.1372367 -0.01708561 0)
(-0.1378914 -0.01282492 -3.91766e-29)
(-0.1388987 -0.008741285 -4.377038e-29)
(-0.1379248 -0.00453817 -2.56125e-29)
(-0.1373808 -0.0003407104 1.545699e-30)
(-0.1364547 0.003729826 1.197529e-29)
(-0.136186 0.007872428 1.96425e-29)
(-0.1365362 0.01184415 9.247605e-30)
(-0.1348947 0.0156445 7.083765e-30)
(-0.1339826 0.01957272 0)
(-0.1327989 0.02335546 9.239985e-29)
(-0.1323452 0.02737204 -7.927233e-30)
(-0.1325578 0.03133454 -1.899855e-29)
(-0.1305971 0.0348339 -1.785928e-28)
(-0.1294214 0.03863393 3.303904e-28)
(-0.1279473 0.04225734 0)
(-0.1271209 0.04624235 -1.251578e-28)
(-0.1268631 0.0502402 2.006922e-29)
(-0.1242446 0.05337733 -1.721499e-28)
(-0.1222914 0.0569054 2.114589e-28)
(-0.1199173 0.06012212 2.89388e-29)
(-0.1180391 0.06368922 0)
(-0.1167564 0.06728712 0)
(-0.1132968 0.06963455 -2.426791e-29)
(-0.1106327 0.07251389 1.614781e-31)
(-0.1078313 0.07512636 2.195146e-28)
(-0.10566 0.07828435 5.210031e-28)
(-0.1041681 0.08165253 -3.31032e-28)
(-0.1007295 0.08354166 2.262831e-32)
(-0.09803245 0.08613758 2.470583e-29)
(-0.09522131 0.08848015 2.337516e-29)
(-0.0929157 0.09146275 -1.964776e-28)
(-0.09123077 0.09477376 3.291474e-29)
(-0.08778242 0.09634683 -2.294318e-29)
(-0.08492669 0.09872419 -3.247658e-28)
(-0.08194285 0.1008087 -2.446261e-32)
(-0.07929533 0.1035413 -4.096669e-28)
(-0.07714116 0.1066047 -2.39059e-28)
(-0.07340822 0.1076096 2.279166e-29)
(-0.07007281 0.1093562 -1.384403e-28)
(-0.06664746 0.1107033 0)
(-0.06351431 0.1127064 0)
(-0.0609063 0.1151713 3.020286e-29)
(-0.05715627 0.1155302 1.978875e-29)
(-0.05380868 0.116856 0)
(-0.05045095 0.1178605 0)
(-0.04731082 0.1196524 1.16192e-28)
(-0.04450246 0.1217576 1.393736e-28)
(-0.04102024 0.1221567 -1.514709e-28)
(-0.03750058 0.1226692 -1.448656e-28)
(-0.03426983 0.1239452 -2.752171e-33)
(-0.03082363 0.1243101 -1.062233e-29)
(-0.02746809 0.125682 -1.226808e-29)
(-0.02444482 0.1276401 5.967193e-29)
(-0.02087665 0.127164 0)
(-0.01735447 0.1276365 7.613029e-29)
(-0.01386963 0.1277524 -2.85281e-29)
(-0.01031252 0.12852 2.350561e-29)
(-0.006985653 0.129751 -5.184453e-29)
(-0.003478334 0.1284783 2.208214e-29)
(5.849852e-05 0.1282051 1.444697e-31)
(0.003463445 0.1276803 8.776536e-30)
(0.006991654 0.1279003 2.912228e-33)
(0.01034633 0.1288168 0)
(0.0135622 0.1274182 0)
(0.01697003 0.1270503 -6.952378e-29)
(0.02024204 0.1264304 5.4289e-29)
(0.0237483 0.1264961 0)
(0.02718525 0.1270708 0)
(0.03030134 0.1258724 0)
(0.03354671 0.1248325 -2.653816e-28)
(0.03689227 0.1243328 -1.370102e-29)
(0.04004215 0.1231842 -1.263007e-29)
(0.04346418 0.1225256 -1.265787e-28)
(0.04693228 0.122333 9.721376e-29)
(0.04979753 0.1204773 3.138762e-28)
(0.05285765 0.1188758 2.568233e-29)
(0.05573174 0.1169595 -2.367559e-29)
(0.05901215 0.1156731 -1.373582e-28)
(0.06222505 0.1146544 1.594894e-28)
(0.06471221 0.1122648 2.285527e-29)
(0.06725882 0.1099177 0)
(0.07016027 0.1082835 0)
(0.07255055 0.1059735 1.090464e-28)
(0.07562825 0.1044536 6.212503e-32)
(0.07883338 0.1034418 -1.834184e-28)
(0.08103853 0.1010419 2.435444e-29)
(0.0833442 0.0986476 2.345833e-29)
(0.0861498 0.09691115 -2.256046e-28)
(0.08833489 0.09452182 0)
(0.0913134 0.09276347 0)
(0.09446933 0.0914335 0)
(0.09633184 0.08876489 -2.389404e-28)
(0.09823115 0.08599986 2.592451e-29)
(0.1006636 0.08374654 2.142865e-28)
(0.1023521 0.08091016 -5.416144e-28)
(0.1048134 0.07848787 -1.9226e-28)
(0.1076014 0.07654835 3.943121e-28)
(0.1084499 0.07314861 2.422493e-29)
(0.1099817 0.07010602 -1.733133e-28)
(0.1111018 0.06694604 1.026316e-31)
(0.1128987 0.06409708 2.50604e-29)
(0.1149325 0.06162631 2.943487e-29)
(0.1154692 0.05833504 2.22493e-29)
(0.11615 0.05505831 -1.421753e-28)
(0.1176206 0.05224026 1.240421e-28)
(0.1182973 0.04912854 1.247855e-28)
(0.120031 0.04631755 0)
(0.122165 0.04386982 -1.019942e-28)
(0.122635 0.04076762 -5.300628e-32)
(0.1232651 0.03762553 1.196454e-28)
(0.1247324 0.03478125 1.056286e-28)
(0.1252971 0.03171304 -1.093725e-28)
(0.1268775 0.02873781 5.228437e-29)
(0.1288242 0.02602585 1.724733e-29)
(0.1289526 0.02287053 7.011144e-30)
(0.1290949 0.01961983 -5.606481e-29)
(0.129973 0.01651281 -2.853613e-32)
(0.1298278 0.01330015 3.160657e-29)
(0.1305937 0.01003381 3.199264e-32)
(0.1316029 0.006970828 3.176465e-29)
(0.1306385 0.003773686 3.018546e-29)
(0.1296721 0.0005315306 -2.281214e-30)
(0.1295079 -0.002620181 -8.546244e-30)
(0.1284673 -0.005680495 -1.73236e-29)
(0.1284866 -0.00889262 -2.493012e-29)
(0.1289673 -0.01191586 -2.03086e-32)
(0.1277063 -0.01480966 -3.540347e-29)
(0.1265909 -0.01778121 6.592201e-29)
(0.1263757 -0.02082004 5.679264e-29)
(0.1254005 -0.02368846 4.64193e-29)
(0.1254063 -0.02688405 2.450618e-29)
(0.126106 -0.03003598 0)
(0.1247487 -0.0327733 -2.200252e-28)
(0.1242424 -0.03585067 1.360982e-29)
(0.123695 -0.03886421 1.396815e-29)
(0.123761 -0.04218644 1.579263e-29)
(0.1240261 -0.04549912 0)
(0.1235494 -0.04870024 -6.833808e-29)
(0.1238955 -0.05229755 4.021516e-29)
(0.1241328 -0.05587412 4.308235e-29)
(0.1239646 -0.05935068 7.400679e-29)
(0.1233721 -0.06269052 -9.292316e-29)
(0.12232 -0.06582927 0)
(0.1208589 -0.06874954 1.6597e-28)
(0.1191894 -0.07153345 -9.568979e-29)
(0.1171099 -0.0740377 -1.05901e-28)
(0.1151072 -0.0765834 -7.08076e-29)
(0.1128358 -0.07889907 -8.658561e-32)
(0.1110382 -0.08161242 -2.628828e-28)
(0.1097006 -0.08451597 0)
(0.1074954 -0.08675987 -2.637178e-28)
(0.1054274 -0.0891644 -2.595462e-28)
(0.1032651 -0.09143721 0)
(0.101157 -0.09376253 2.56591e-28)
(0.09875977 -0.09581161 1.419937e-31)
(0.09686413 -0.0984842 0)
(0.09543811 -0.1014343 4.290375e-28)
(0.09281424 -0.1031929 -2.56984e-28)
(0.09057767 -0.1055277 -4.36036e-28)
(0.08824152 -0.1076698 4.0532e-29)
(0.08611663 -0.1102495 -1.854936e-28)
(0.08430356 -0.1130481 -2.216435e-28)
(0.08146548 -0.1145713 0)
(0.07872968 -0.1163709 -9.56586e-29)
(0.07590322 -0.1179466 4.143837e-29)
(0.07301204 -0.1194002 -3.370518e-28)
(0.06983764 -0.1203228 7.597151e-29)
(0.06704911 -0.1220317 7.889038e-29)
(0.06457928 -0.1239299 0)
(0.06141755 -0.1245237 -1.530305e-28)
(0.05824108 -0.1251924 0)
(0.05541733 -0.1264518 1.90532e-29)
(0.05234294 -0.1270219 1.537639e-28)
(0.04950365 -0.128413 -1.87223e-29)
(0.04697261 -0.130132 9.613985e-29)
(0.04391193 -0.1304875 -7.187591e-32)
(0.04085355 -0.1310543 0)
(0.03802709 -0.1322047 -1.945318e-29)
(0.0350376 -0.1327497 -3.657361e-29)
(0.03216214 -0.1341209 -2.001871e-29)
(0.02944313 -0.1357478 5.679124e-29)
(0.02649464 -0.1368735 1.071052e-29)
(0.02366046 -0.1388651 0)
(0.02081038 -0.1408375 0)
(0.01785228 -0.1425256 0)
(0.01480162 -0.143938 0)
(0.01166348 -0.1449572 4.62079e-29)
(0.008457764 -0.1456181 -9.995125e-30)
(0.005216219 -0.1458362 -3.61045e-30)
(0.001979242 -0.1457335 4.225761e-30)
(-0.001236007 -0.1451643 1.259985e-29)
(-0.004430992 -0.1446967 2.878727e-30)
(-0.007575981 -0.1438818 -5.437493e-30)
(-0.0107984 -0.143718 -5.636653e-30)
(-0.01392207 -0.143941 -1.212963e-29)
(-0.01695864 -0.1432533 2.393415e-29)
(-0.02002111 -0.142485 0)
(-0.02310416 -0.1421279 -2.315743e-29)
(-0.0260626 -0.1411867 2.408398e-29)
(-0.02922255 -0.1408364 -2.298431e-29)
(-0.0323417 -0.1409391 -3.454918e-29)
(-0.03519728 -0.1397625 1.599529e-28)
(-0.03817813 -0.1388589 1.355373e-28)
(-0.04108206 -0.1378549 1.132075e-28)
(-0.04398598 -0.1368298 9.123869e-29)
(-0.0467409 -0.1353555 -1.611662e-28)
(-0.04981675 -0.1345403 -1.112137e-28)
(-0.05289643 -0.1341329 0)
(-0.05546537 -0.1323202 1.461766e-28)
(-0.05821555 -0.1307772 4.488137e-29)
(-0.06086427 -0.1291365 4.401811e-29)
(-0.06350845 -0.127475 -1.484381e-28)
(-0.0658868 -0.1253173 3.009815e-28)
(-0.06870009 -0.1238452 1.20069e-28)
(-0.07152158 -0.1227795 0)
(-0.07361553 -0.120436 -1.526985e-28)
(-0.07585615 -0.1182591 1.043909e-28)
(-0.07830317 -0.1165402 -2.840884e-33)
(-0.08043204 -0.1144138 3.897917e-29)
(-0.08289139 -0.1126799 1.774926e-31)
(-0.08539964 -0.1112031 0)
(-0.08733613 -0.1089639 2.109059e-31)
(-0.08943063 -0.106888 0)
(-0.09144762 -0.1047707 0)
(-0.09364366 -0.1028688 0)
(-0.09548925 -0.1006126 2.4352e-28)
(-0.09792254 -0.09884023 0)
(-0.1005453 -0.09746036 1.132065e-31)
(-0.1020991 -0.09498318 2.128238e-28)
(-0.1040165 -0.09274644 6.171966e-32)
(-0.1058449 -0.0905001 4.04967e-29)
(-0.1076868 -0.08824976 2.465803e-28)
(-0.1091272 -0.08567215 2.508516e-28)
(-0.1112438 -0.0835054 -2.344289e-28)
(-0.1135373 -0.08165256 1.831396e-28)
(-0.1145287 -0.0788052 9.202434e-32)
(-0.115836 -0.07609206 3.802781e-29)
(-0.1170945 -0.07342755 7.502753e-29)
(-0.1181725 -0.07067705 3.607781e-29)
(-0.1190126 -0.06781547 1.349869e-28)
(-0.1204114 -0.06524285 1.11257e-28)
(-0.1219951 -0.06291631 3.845819e-29)
(-0.1226792 -0.06014571 3.447187e-29)
(-0.1232162 -0.05727174 2.716374e-28)
(-0.1240861 -0.05459545 -1.271314e-28)
(-0.1246868 -0.05184759 1.597642e-29)
(-0.1255981 -0.04922932 -1.004085e-28)
(-0.1261603 -0.04650314 1.118619e-28)
(-0.1276614 -0.0440289 9.448094e-29)
(-0.1294393 -0.04182393 2.000723e-29)
(-0.1297378 -0.0390866 2.335362e-28)
(-0.1302895 -0.03633925 -6.146803e-32)
(-0.1313627 -0.03378804 8.220931e-29)
(-0.1318406 -0.03109154 -3.496021e-29)
(-0.1328881 -0.02844493 -5.222929e-29)
(-0.1340492 -0.02593597 1.001699e-29)
(-0.1339851 -0.02314345 -1.214155e-28)
(-0.1341884 -0.02035241 0)
(-0.1342668 -0.0175659 -5.904389e-29)
(-0.1345989 -0.01480999 3.323371e-29)
(-0.1343689 -0.01200766 6.276919e-29)
(-0.1348752 -0.009166894 -2.290762e-29)
(-0.1356798 -0.006507518 1.208331e-30)
(-0.1347499 -0.003725446 1.803302e-29)
(-0.1342663 -0.0009138268 2.029138e-30)
(-0.1337948 0.00181154 3.90025e-30)
(-0.1334198 0.004518394 1.152823e-29)
(-0.1326062 0.007177727 -1.827609e-29)
(-0.1326993 0.009962306 0)
(-0.1332458 0.01260201 0)
(-0.132176 0.01512927 3.704498e-29)
(-0.13169 0.01778574 1.226325e-28)
(-0.1313004 0.02038736 -1.213181e-32)
(-0.1310354 0.02301646 -8.009719e-30)
(-0.1303503 0.02556513 -4.788274e-29)
(-0.1305294 0.0283852 4.850425e-29)
(-0.1311545 0.0311494 7.880983e-29)
(-0.130166 0.03359469 1.675691e-29)
(-0.1296925 0.03626209 0)
(-0.1292527 0.03889083 0)
(-0.1288342 0.04155083 1.866452e-29)
(-0.1279245 0.04406116 1.777004e-29)
(-0.1277256 0.04693441 -6.675927e-29)
(-0.1278585 0.0497861 6.233926e-29)
(-0.1265479 0.05214552 8.933711e-29)
(-0.1254276 0.05467367 6.794583e-29)
(-0.1245446 0.05725033 -3.924836e-29)
(-0.1229893 0.0595171 -1.207279e-28)
(-0.1215787 0.06189057 -1.224734e-28)
(-0.1197215 0.06400141 -1.577587e-28)
(-0.1184477 0.0664997 6.146124e-29)
(-0.1175696 0.06902165 -5.33586e-32)
(-0.1153101 0.07074943 -3.142521e-29)
(-0.1134315 0.07276279 -3.1742e-29)
(-0.1116201 0.07472503 1.530619e-28)
(-0.1099092 0.07673411 1.483555e-28)
(-0.107872 0.0784864 0)
(-0.1065262 0.0808328 -3.240934e-28)
(-0.1055838 0.0832786 0)
(-0.1034659 0.08484718 -3.094847e-29)
(-0.1015891 0.08670101 4.901435e-32)
(-0.1000784 0.08878078 -4.472356e-32)
(-0.09811775 0.0904491 2.117486e-31)
(-0.09643951 0.09242448 3.318698e-29)
(-0.09453204 0.0941473 -3.208615e-29)
(-0.09316047 0.09655414 -7.123581e-29)
(-0.09217564 0.09914285 7.280295e-29)
(-0.09002478 0.1005748 -3.485631e-29)
(-0.08809743 0.1023903 -1.910194e-28)
(-0.08628882 0.1042702 -1.854828e-28)
(-0.0843474 0.1060129 -2.329056e-28)
(-0.08220716 0.1075391 1.602779e-28)
(-0.08032457 0.1094927 0)
(-0.07851625 0.1114146 9.752061e-29)
(-0.07613002 0.1125652 1.16506e-28)
(-0.07363916 0.1136382 0)
(-0.07125681 0.1148217 -1.203982e-28)
(-0.06867352 0.1156071 2.820964e-28)
(-0.06622788 0.116609 -8.927636e-29)
(-0.06361879 0.1172274 1.17512e-28)
(-0.06134058 0.1186052 8.645396e-29)
(-0.05940568 0.1202468 -1.011448e-28)
(-0.05672009 0.1204474 1.440068e-29)
(-0.05421155 0.1211364 1.281645e-28)
(-0.05178949 0.1218485 -2.043132e-28)
(-0.04942623 0.122679 1.49171e-29)
(-0.0469237 0.1231135 0)
(-0.04467007 0.1244507 0)
(-0.0426979 0.1260794 0)
(-0.04017908 0.1262486 -1.481594e-29)
(-0.03771434 0.1268437 -1.509203e-29)
(-0.03541359 0.1277785 -5.51229e-32)
(-0.03298265 0.1282262 1.536453e-29)
(-0.03057588 0.1289022 1.58267e-29)
(-0.02814547 0.1294428 -8.610453e-29)
(-0.02576537 0.1305403 8.472652e-30)
(-0.02353621 0.131935 -6.570992e-33)
(-0.02106919 0.1321562 -1.693664e-29)
(-0.01853853 0.1323857 4.18047e-29)
(-0.01600778 0.132636 -4.76367e-29)
(-0.01351987 0.1332503 -4.392445e-30)
(-0.01097902 0.1333052 1.922413e-29)
(-0.008389773 0.1341194 -2.24084e-30)
(-0.005958274 0.135197 7.721251e-30)
(-0.003409673 0.1346825 6.39275e-30)
(-0.0008063478 0.1344339 -1.667986e-30)
(0.001716752 0.1345049 3.272719e-30)
(0.004207547 0.133917 1.399742e-29)
(0.00672213 0.1336341 0)
(0.009177744 0.1329998 -3.380502e-29)
(0.01176458 0.1331346 -1.639042e-29)
(0.01421955 0.1336664 -3.165171e-29)
(0.01654836 0.1326336 -5.547461e-29)
(0.01900426 0.1321017 5.129229e-29)
(0.02140238 0.1316397 -1.595527e-29)
(0.02381693 0.1312527 1.577681e-29)
(0.0261427 0.130444 1.998362e-32)
(0.02872226 0.1304302 1.678431e-29)
(0.03123228 0.1307986 3.992303e-29)
(0.03346102 0.1297561 -1.156316e-28)
(0.03586955 0.1291214 7.454767e-29)
(0.03827827 0.1286772 0)
(0.04060146 0.1279745 -1.136415e-28)
(0.04282995 0.1268933 8.504284e-29)
(0.04520595 0.1261965 0)
(0.04743769 0.1251454 -1.638897e-29)
(0.05005035 0.1248064 -1.774872e-29)
(0.05266945 0.1248731 7.895395e-29)
(0.05471324 0.1234122 -3.429247e-29)
(0.05703114 0.12236 -1.331727e-28)
(0.05930185 0.1213216 -9.597399e-29)
(0.06159824 0.1202961 -3.625451e-29)
(0.06364564 0.1187896 -3.381872e-29)
(0.06614097 0.117941 0)
(0.06864387 0.1174436 8.864687e-29)
(0.07041789 0.1156327 -7.539153e-29)
(0.07242146 0.1140769 1.370624e-28)
(0.07456043 0.1128717 -3.63743e-29)
(0.07634859 0.1111682 -3.364306e-29)
(0.07832767 0.1097157 9.974578e-29)
(0.08007805 0.1079939 0)
(0.08235432 0.1068432 -1.371213e-28)
(0.0847301 0.1060723 -4.01317e-29)
(0.08624947 0.1041579 -3.435296e-29)
(0.08804574 0.1024734 0)
(0.08999488 0.1010553 0)
(0.09161107 0.09927939 -3.480589e-29)
(0.09330088 0.09755251 -3.513205e-29)
(0.09487536 0.09571478 -3.816714e-28)
(0.09680838 0.0941857 1.580136e-28)
(0.09874255 0.09276392 0)
(0.1001363 0.09080095 2.019477e-28)
(0.101586 0.0888347 -2.325937e-28)
(0.1032272 0.08705834 -3.560475e-29)
(0.104612 0.08508081 0)
(0.1062096 0.08324417 0)
(0.1074834 0.08116483 1.523166e-28)
(0.1094163 0.07946403 9.601605e-29)
(0.1115224 0.07805232 0)
(0.1124936 0.0757812 0)
(0.1137366 0.07359547 0)
(0.1151891 0.07161508 9.87886e-29)
(0.1160827 0.06930663 -1.064123e-28)
(0.1172423 0.06713689 0)
(0.1180795 0.06482721 0)
(0.1196453 0.06282858 6.98061e-29)
(0.1214506 0.06113234 8.297285e-29)
(0.1220274 0.05877738 -8.387901e-29)
(0.122946 0.05651024 3.500423e-29)
(0.1241881 0.05446515 1.859117e-29)
(0.1248879 0.05219553 -9.551696e-29)
(0.1258884 0.05002142 1.098469e-28)
(0.1265552 0.04774204 -7.133742e-29)
(0.1279538 0.04564459 -1.889964e-29)
(0.1296266 0.04379273 5.443936e-29)
(0.1300144 0.04145533 1.850955e-29)
(0.1307321 0.03914648 -6.929411e-29)
(0.1317704 0.03698582 -1.99152e-29)
(0.1322293 0.0346671 -1.878957e-29)
(0.1329492 0.03238102 -4.539252e-29)
(0.1333035 0.03002043 4.53537e-29)
(0.1343618 0.02772686 -4.240965e-29)
(0.1357175 0.02562566 -2.193289e-29)
(0.1357295 0.02321584 -9.623811e-30)
(0.136116 0.02079756 3.702849e-29)
(0.1366187 0.01844514 -5.667453e-29)
(0.1368138 0.01605456 -4.892047e-30)
(0.1365968 0.01359907 2.286979e-29)
(0.1366942 0.0111605 2.626652e-29)
(0.1363662 0.008705746 0)
(0.1367595 0.006211516 0)
(0.137409 0.003878256 -4.135641e-33)
(0.1366255 0.001475848 -5.849084e-30)
(0.1361739 -0.0009740672 1.253891e-30)
(0.1360506 -0.003347471 5.655481e-33)
(0.1354737 -0.005687889 -7.533825e-33)
(0.1350656 -0.008040174 0)
(0.1345377 -0.01036111 -1.627387e-29)
(0.1345857 -0.01275909 1.774873e-29)
(0.1347508 -0.01506523 -7.286954e-33)
(0.1340808 -0.01730204 9.100708e-29)
(0.1335371 -0.01958883 0)
(0.1333398 -0.02189999 4.365244e-29)
(0.1328524 -0.02414689 -1.76101e-29)
(0.1326422 -0.02646313 -1.836768e-29)
(0.132087 -0.02869849 -5.837686e-29)
(0.1322637 -0.03118831 -4.602355e-29)
(0.1327972 -0.03362647 0)
(0.1320142 -0.03578563 -1.705014e-28)
(0.1315207 -0.03811072 -8.039234e-29)
(0.1313591 -0.04048119 0)
(0.1306169 -0.04267722 6.696001e-29)
(0.1300917 -0.04498613 -4.05806e-29)
(0.1292093 -0.04715904 -8.604514e-29)
(0.1289109 -0.04964813 -6.256611e-33)
(0.1289441 -0.05213191 -5.431865e-29)
(0.1277063 -0.05415891 4.023686e-29)
(0.1267552 -0.05638865 0)
(0.1259074 -0.05861344 -1.351975e-28)
(0.1247513 -0.06069023 3.620249e-32)
(0.1231938 -0.06258996 1.515637e-28)
(0.1218499 -0.06460668 0)
(0.1201257 -0.0663825 0)
(0.118995 -0.06855754 0)
(0.1182183 -0.07075594 1.37213e-28)
(0.1163225 -0.07231397 3.480988e-29)
(0.1146873 -0.0740878 -1.056484e-28)
(0.1133981 -0.07600334 0)
(0.111698 -0.07761787 3.426455e-29)
(0.1102671 -0.07943673 1.958093e-28)
(0.1086279 -0.08106851 -3.40234e-29)
(0.1075543 -0.08321991 0)
(0.1068809 -0.08550182 1.483581e-28)
(0.1051651 -0.08701073 3.661388e-29)
(0.103765 -0.0888664 2.39318e-28)
(0.1025605 -0.09082447 3.495791e-28)
(0.1011758 -0.09261729 0)
(0.0995351 -0.09420377 -1.76993e-28)
(0.09815436 -0.0960575 0)
(0.09650994 -0.09763787 -1.590089e-28)
(0.0953149 -0.09981163 -1.081372e-28)
(0.09444966 -0.1021437 0)
(0.09265088 -0.1035477 4.199011e-29)
(0.09098053 -0.1052214 2.48884e-28)
(0.08954996 -0.1071031 4.490832e-29)
(0.08772958 -0.108528 -4.28465e-29)
(0.08601328 -0.1101434 2.447556e-32)
(0.0840625 -0.1114423 -2.52361e-32)
(0.08241832 -0.1133004 -4.440048e-29)
(0.08103797 -0.1153146 4.807945e-29)
(0.07886119 -0.1162842 -1.02057e-28)
(0.07677195 -0.1175057 -4.295923e-29)
(0.07479871 -0.118807 -4.364856e-29)
(0.07255293 -0.1196438 -1.14834e-28)
(0.07023886 -0.1203474 3.949909e-29)
(0.06779491 -0.1207727 1.237439e-28)
(0.06551542 -0.1214652 -1.177013e-28)
(0.0631148 -0.1218386 -1.467696e-28)
(0.06101814 -0.1229347 -3.663491e-29)
(0.05921602 -0.1242666 -2.12432e-28)
(0.05683708 -0.1244353 -1.727813e-29)
(0.05453894 -0.1249095 1.04674e-28)
(0.0524587 -0.1257164 -1.000108e-28)
(0.05020554 -0.1260538 -1.69423e-29)
(0.0480715 -0.1267401 -1.755164e-29)
(0.04586422 -0.1271543 1.691803e-29)
(0.04385575 -0.1283522 -4.224275e-29)
(0.04210576 -0.1298667 0)
(0.03988661 -0.130083 9.054008e-29)
(0.03773424 -0.1307712 8.16651e-29)
(0.03569556 -0.131664 7.745175e-29)
(0.0335964 -0.1323274 -1.951388e-29)
(0.03139894 -0.1326781 5.798712e-30)
(0.02927534 -0.1334319 2.029585e-29)
(0.02708678 -0.1338168 -9.567624e-30)
(0.02495212 -0.1349891 -3.601398e-29)
(0.02300871 -0.1364429 3.276141e-29)
(0.02077632 -0.1365315 0)
(0.01850066 -0.1369283 0)
(0.0163203 -0.1376514 1.999754e-29)
(0.01406064 -0.1377649 -2.246276e-29)
(0.01178595 -0.1380952 2.23436e-29)
(0.009490179 -0.1380283 0)
(0.007145061 -0.1386078 -1.691286e-29)
(0.004946405 -0.1394278 -2.122524e-29)
(0.002661505 -0.1388638 1.256261e-30)
(0.0003288699 -0.138601 2.022848e-30)
(-0.001935715 -0.1385671 0)
(-0.004163488 -0.1380699 -1.333925e-29)
(-0.006385329 -0.1374931 1.39701e-29)
(-0.008570812 -0.1366487 0)
(-0.01077081 -0.1361378 2.640903e-29)
(-0.01291211 -0.1353115 0)
(-0.0151946 -0.1352659 2.731995e-29)
(-0.01735981 -0.1355679 9.961612e-30)
(-0.01939121 -0.1345594 -8.561763e-30)
(-0.02153144 -0.1338735 -3.916627e-29)
(-0.02367178 -0.1335854 4.48941e-29)
(-0.0257096 -0.1327983 -4.681593e-29)
(-0.02784112 -0.1323562 -2.608614e-29)
(-0.02988941 -0.1316363 1.723171e-29)
(-0.03219259 -0.1316491 -8.586862e-30)
(-0.03445059 -0.1320608 0)
(-0.03642158 -0.1311545 8.463504e-29)
(-0.03859006 -0.1306758 1.92042e-29)
(-0.04077863 -0.1304295 2.006844e-29)
(-0.04289873 -0.1299639 -2.002001e-29)
(-0.0449449 -0.1291887 9.891212e-32)
(-0.04713408 -0.1287585 -5.472623e-29)
(-0.04918953 -0.1279844 -9.439989e-29)
(-0.05160266 -0.1278657 -2.599283e-29)
(-0.05402398 -0.1280939 4.701517e-29)
(-0.0559833 -0.1270708 0)
(-0.05814005 -0.126291 0)
(-0.06038792 -0.1258017 1.313642e-31)
(-0.06237834 -0.1247626 -1.749381e-28)
(-0.06447399 -0.1238492 8.779694e-29)
(-0.06636308 -0.1225706 -4.94676e-29)
(-0.06858883 -0.1217619 6.870028e-29)
(-0.07084559 -0.1212766 -4.680023e-29)
(-0.07253506 -0.1197589 -4.196594e-29)
(-0.07443349 -0.1184946 2.251259e-32)
(-0.07639926 -0.1174454 1.320257e-28)
(-0.07811417 -0.116049 -1.917105e-28)
(-0.07978213 -0.1145804 1.028924e-28)
(-0.08128115 -0.1128999 2.075422e-28)
(-0.08292857 -0.1114251 -1.60634e-28)
(-0.08435463 -0.1097052 -1.930667e-28)
(-0.08625734 -0.1084889 -1.84968e-28)
(-0.08826981 -0.1076337 -1.621721e-28)
(-0.08956559 -0.1058511 0)
(-0.09113991 -0.1043162 3.939463e-29)
(-0.09277306 -0.1029269 2.150384e-28)
(-0.09424601 -0.1013825 1.476531e-28)
(-0.09551137 -0.09960177 -3.788433e-29)
(-0.09701847 -0.09806187 3.906525e-29)
(-0.09827721 -0.09630162 7.502039e-29)
(-0.1000877 -0.09496965 -8.604097e-29)
(-0.1020632 -0.09397082 1.028716e-28)
(-0.1032038 -0.092145 -7.889821e-29)
(-0.1046534 -0.09050225 3.276843e-28)
(-0.1062699 -0.0890674 8.431808e-29)
(-0.1075693 -0.08736849 2.560944e-28)
(-0.1088423 -0.08563049 -1.824425e-28)
(-0.1099177 -0.0837315 2.509302e-32)
(-0.1112429 -0.0820057 4.048846e-29)
(-0.1122908 -0.08008798 0)
(-0.1139953 -0.07853177 0)
(-0.1158664 -0.07724836 0)
(-0.1166866 -0.07520212 -9.805577e-32)
(-0.1177637 -0.07323594 8.844706e-29)
(-0.1190898 -0.07148975 8.651723e-29)
(-0.119924 -0.06945791 -9.388934e-29)
(-0.1210131 -0.06754901 0)
(-0.1218094 -0.06550264 0)
(-0.1232114 -0.06369889 -1.034587e-28)
(-0.1248229 -0.06215081 -4.62355e-29)
(-0.1253353 -0.06001262 -8.8455e-29)
(-0.1261504 -0.05795074 -2.106712e-29)
(-0.1272696 -0.05608808 6.78254e-33)
(-0.1278416 -0.05399366 2.110061e-29)
(-0.1287197 -0.0520026 -5.652524e-29)
(-0.1291558 -0.04986069 4.203105e-29)
(-0.1303277 -0.04790405 7.013423e-29)
(-0.1317626 -0.04620914 3.610191e-29)
(-0.1318541 -0.04398058 -2.247118e-29)
(-0.1324846 -0.04185279 0)
(-0.1335229 -0.03990436 5.011024e-29)
(-0.1344167 -0.03792908 2.290321e-29)
(-0.1352199 -0.03593009 -4.985093e-29)
(-0.1358219 -0.03389343 -3.749351e-29)
(-0.1361405 -0.03179473 -4.449759e-29)
(-0.1361461 -0.02963667 -1.203845e-29)
(-0.1359419 -0.02745927 -5.312661e-29)
(-0.1352429 -0.02519704 8.946113e-29)
(-0.1347433 -0.02303599 1.112185e-29)
(-0.1327293 -0.02060226 8.71118e-30)
(-0.1331978 -0.01876221 6.654404e-29)
(-0.1259211 -0.01555537 -5.124338e-31)
(-0.1356015 -0.01533619 -7.566394e-29)
(-0.1030688 -0.008741473 1.614686e-29)
(-0.1694899 -0.0151518 1.163777e-28)
(-0.01548704 0.004128262 -8.606741e-28)
(-0.3942958 -0.0194205 1.915959e-29)
(-0.0793393 -0.005579967 1.375399e-28)
(-0.05012973 0.0001487811 3.443071e-30)
(-0.0492836 0.0006833203 2.239828e-31)
(-0.0437302 0.003146771 -4.670001e-30)
(-0.04193043 0.005259609 -8.651113e-34)
(-0.03975763 0.00730908 2.018928e-28)
(-0.03835749 0.009325211 0)
(-0.03709496 0.01128052 -1.25719e-29)
(-0.03614592 0.01327083 -8.940723e-30)
(-0.03533615 0.0152832 8.939695e-30)
(-0.03470134 0.01737125 3.891744e-30)
(-0.03418508 0.01953856 3.872031e-31)
(-0.03375453 0.02178985 2.113484e-30)
(-0.03333823 0.02412233 1.420748e-29)
(-0.03289006 0.02653474 0)
(-0.03235938 0.02901726 9.871338e-30)
(-0.03170796 0.03155142 2.29052e-29)
(-0.03091759 0.03413187 3.837147e-31)
(-0.02997707 0.03675856 1.029751e-31)
(-0.02888278 0.03944141 -1.948691e-30)
(-0.02763454 0.04220149 2.419302e-30)
(-0.02623148 0.04505964 2.150376e-30)
(-0.02471256 0.04809536 -3.090818e-30)
(-0.02310724 0.05136555 3.738101e-30)
(-0.02137717 0.05483303 0)
(-0.01948654 0.05848828 1.984291e-29)
(-0.01740446 0.06234355 0)
(-0.01507725 0.06642253 2.356479e-29)
(-0.0124341 0.07058175 2.559447e-29)
(-0.009462433 0.07482994 1.197986e-29)
(-0.006123128 0.0790996 -1.302039e-29)
(-0.002390918 0.08334071 7.131071e-30)
(0.001748658 0.08749495 9.682909e-30)
(0.006300934 0.09154605 7.71438e-29)
(0.01127302 0.09552567 2.916659e-31)
(0.01666219 0.09954489 5.681029e-29)
(0.02248117 0.1036651 1.153009e-28)
(0.02871125 0.1076926 -3.836677e-28)
(0.03538651 0.1116957 -6.759854e-30)
(0.04253406 0.1156235 1.674409e-28)
(0.0501989 0.1194708 7.870902e-28)
(0.05841124 0.1231769 4.677053e-28)
(0.0671941 0.1267076 2.780163e-29)
(0.07661046 0.1300919 0)
(0.08673528 0.1333021 -7.404785e-29)
(0.09759811 0.1362361 6.724137e-28)
(0.1091956 0.1387792 5.90496e-30)
(0.1214904 0.1407882 3.807291e-28)
(0.1344047 0.1421292 -2.687973e-27)
(0.1476482 0.1425627 3.476251e-27)
(0.160594 0.1415605 -2.084173e-27)
(0.1723218 0.1384477 2.031321e-27)
(0.1814769 0.1323923 -6.144385e-28)
(0.1860668 0.1223626 -3.706477e-27)
(0.1831417 0.1069329 3.280931e-27)
(0.1675456 0.08376774 3.620688e-27)
(0.1336666 0.05152509 7.010654e-27)
(0.06916349 0.004128757 -3.040461e-27)
(-0.03818195 -0.06277418 -1.051802e-28)
(-0.2427207 -0.1390466 -3.171779e-27)
(-0.3842987 -0.1799501 -3.95884e-27)
(-0.7644634 -0.2613431 -1.237754e-26)
(-0.8471909 -0.2065229 0)
(-0.8172968 -0.1344174 7.121539e-27)
(-0.9424414 -0.1111906 -9.090478e-28)
(-0.9407732 -0.06519119 9.59521e-27)
(-0.8992647 -0.02418862 2.206469e-27)
(-0.841802 0.01236537 0)
(-0.7719258 0.04292941 5.583254e-28)
(-0.6990536 0.06686541 -7.576135e-28)
(-0.6306627 0.08534507 -1.982387e-27)
(-0.56808 0.09959791 4.89769e-29)
(-0.5121808 0.1102984 0)
(-0.4650877 0.1190511 3.973875e-28)
(-0.4240399 0.1264261 -4.602043e-30)
(-0.3864869 0.1319981 4.763294e-28)
(-0.3526088 0.1361149 -2.423195e-28)
(-0.3231395 0.1396116 -2.165197e-28)
(-0.2966318 0.1424258 -2.183701e-28)
(-0.2731471 0.1444547 -1.850452e-28)
(-0.2538079 0.1469785 1.036098e-28)
(-0.2357295 0.1490677 -1.526118e-28)
(-0.2170127 0.1492603 -1.486818e-28)
(-0.1988038 0.1481183 -1.271564e-28)
(-0.1816875 0.146318 0)
(-0.1649262 0.1433295 6.808401e-28)
(-0.1496144 0.1399646 0)
(-0.1361258 0.1371062 -3.73345e-28)
(-0.1230932 0.1336294 -5.791676e-28)
(-0.110471 0.1292166 3.231787e-28)
(-0.09935598 0.1251625 4.276855e-28)
(-0.08974091 0.1220375 -1.858532e-28)
(-0.08060854 0.1187143 4.002489e-29)
(-0.07206169 0.1151178 -1.410279e-28)
(-0.06471503 0.1123655 1.184587e-28)
(-0.05844275 0.1107737 1.649571e-28)
(-0.05238845 0.1089417 0)
(-0.04673189 0.106914 6.773146e-29)
(-0.04166578 0.1054023 0)
(-0.03703032 0.1044244 0)
(-0.03237941 0.1028681 0)
(-0.02810377 0.10142 0)
(-0.02414833 0.1006391 4.183985e-29)
(-0.02031952 0.1000323 4.016219e-29)
(-0.01646694 0.09876932 0)
(-0.01291361 0.09792162 -1.652873e-29)
(-0.009443335 0.0977879 -1.237189e-29)
(-0.005968449 0.09760864 1.749463e-29)
(-0.002497128 0.09682477 2.804263e-30)
(0.0008183523 0.09674886 2.093611e-30)
(0.004284113 0.09745877 0)
(0.007824217 0.09792155 -1.027214e-29)
(0.01135996 0.09803278 -4.077589e-29)
(0.01487459 0.09873098 7.976914e-30)
(0.01875095 0.1003823 5.303505e-30)
(0.02244966 0.1004926 0)
(0.02608918 0.1006659 0)
(0.02976021 0.1005972 0)
(0.03334182 0.1005301 5.850517e-30)
(0.03755856 0.1018554 2.128565e-28)
(0.0417954 0.1024268 -1.960661e-28)